
 Primary working directories    : /tmp/satyam/molpro.iyrj4Xc3VD
 Secondary working directories  : /tmp/satyam/molpro.iyrj4Xc3VD
 Wavefunction directory         : /home/satyam/wfu/
 Main file repository           : /tmp/satyam/molpro.iyrj4Xc3VD/

 id        : iacsdirector

 Nodes     nprocs
 satyam       2

 Using customized tuning parameters: mindgm=1; mindgv=20; mindgc=4; mindgr=1; noblas=0; minvec=7
 default implementation of scratch files=sf  


 Variables initialized (930), CPU time= 0.01 sec
 
 memory,50,m
 
 set,charge=0
 basis=cc-pVDZ
 
 symmetry,nosym
 
 geometry=geom.xyz
 Including file /home/satyam/Downloads/adt-new/ADT-Program/test_runs/optimization/MOLPRO/C6H6/geom.xyz
 
 {ks,b3lyp}
 optg;
 {frequencies;print,hessian}
 
 Commands  initialized (760), CPU time= 0.01 sec, 617 directives.
 Default parameters read. Elapsed time= 0.13 sec

 Checking input...
 Passed
1


                                         ***  PROGRAM SYSTEM MOLPRO  ***
                                       Copyright, TTI GmbH Stuttgart, 2015
                                    Version 2018.2 linked Nov 10 2018 21:55:55


 **********************************************************************************************************************************
 LABEL *                                                                                 
  64 bit mpp version                                                                     DATE: 23-Feb-20          TIME: 16:05:22  
 **********************************************************************************************************************************

 SHA1:             5ea806b172b3d20b18658228ad0b1c212d33fc17
 **********************************************************************************************************************************
 SETTING CHARGE         =     0.00000000D+00                                  

 Variable memory set to   50000000 words,  buffer space 

 SETTING BASIS          =    CC-PVDZ
 ZSYMEL=NOSYM


Geometry recognized as XYZ



 Recomputing integrals since basis changed


 Using spherical harmonics

 Library entry C      S cc-pVDZ              selected for orbital group  1
 Library entry C      P cc-pVDZ              selected for orbital group  1
 Library entry C      D cc-pVDZ              selected for orbital group  1
 Library entry H      S cc-pVDZ              selected for orbital group  2
 Library entry H      P cc-pVDZ              selected for orbital group  2


 PROGRAM * SEWARD (Integral evaluation for generally contracted gaussian basis sets)     Author: Roland Lindh, 1990

 Geometry written to block  1 of record 700


 Point group  C1  



 ATOMIC COORDINATES

 NR  ATOM    CHARGE       X              Y              Z

   1  C       6.00    2.611771404    0.000000000    0.000000000
   2  C       6.00    1.305885701   -2.261860383    0.000000000
   3  C       6.00   -1.305885701   -2.261860383    0.000000000
   4  C       6.00   -2.611771404    0.000000000    0.000000000
   5  C       6.00   -1.305885701    2.261860383    0.000000000
   6  C       6.00    1.305885701    2.261860383    0.000000000
   7  H       1.00    4.642814808    0.000000000    0.000000000
   8  H       1.00    2.321407402   -4.020795567    0.000000000
   9  H       1.00   -2.321407402   -4.020795567    0.000000000
  10  H       1.00   -4.642814808    0.000000000    0.000000000
  11  H       1.00   -2.321407402    4.020795567    0.000000000
  12  H       1.00    2.321407402    4.020795567    0.000000000

 Bond lengths in Bohr (Angstrom)

 1-2  2.611771403  1-6  2.611771403  1-7  2.031043404  2-3  2.611771402  2-8  2.031043403
     ( 1.382089906)     ( 1.382089906)     ( 1.074781884)     ( 1.382089906)     ( 1.074781883)

  3- 4  2.611771403   3- 9  2.031043403   4- 5  2.611771403   4-10  2.031043404   5- 6  2.611771402
       ( 1.382089906)       ( 1.074781883)       ( 1.382089906)       ( 1.074781884)       ( 1.382089906)

  5-11  2.031043403   6-12  2.031043403
       ( 1.074781883)       ( 1.074781883)

 Bond angles

  1- 2- 3  120.00000004   1- 2- 8  119.99999999   1- 6- 5  120.00000004   1- 6-12  119.99999999

  2-1-6  119.99999992   2-1-7  120.00000004   2-3-4  120.00000004   2-3-9  119.99999997

  3- 2- 8  119.99999997   3- 4- 5  119.99999992   3- 4-10  120.00000004   4- 3- 9  119.99999999

  4- 5- 6  120.00000004   4- 5-11  119.99999999   5- 4-10  120.00000004   5- 6-12  119.99999997

  6- 1- 7  120.00000004   6- 5-11  119.99999997

 NUCLEAR CHARGE:                   42
 NUMBER OF PRIMITIVE AOS:         204
 NUMBER OF SYMMETRY AOS:          198
 NUMBER OF CONTRACTIONS:          114   (  114A   )
 NUMBER OF CORE ORBITALS:           6   (    6A   )
 NUMBER OF VALENCE ORBITALS:       30   (   30A   )


 NUCLEAR REPULSION ENERGY  205.34887199

 EXTRA SYMMETRY OF AOS IN SYMMETRY 1:   1 1 1 1 1 2 1 1 2 1   1 2 1 2 1 1 1 1 1 2   1 1 2 1 1 2 1 2 1 1   1 1 1 2 1 1 2 1 1 2
                                        1 2 1 1 1 1 1 2 1 1   2 1 1 2 1 2 1 1 1 1   1 2 1 1 2 1 1 2 1 2   1 1 1 1 1 2 1 1 2 1
                                        1 2 1 2 1 1 1 1 2 1   1 1 1 2 1 1 1 1 2 1   1 1 1 2 1 1 1 1 2 1   1 1 1 2

 Eigenvalues of metric

         1 0.302E-03 0.171E-02 0.244E-02 0.244E-02 0.335E-02 0.335E-02 0.138E-01 0.138E-01


 Contracted 2-electron integrals neglected if value below      1.0D-11
 AO integral compression algorithm  1   Integral accuracy      1.0D-11

     55.312 MB (compressed) written to integral file ( 29.5%)

     Node minimum: 27.001 MB, node maximum: 28.312 MB


 NUMBER OF SORTED TWO-ELECTRON INTEGRALS:   10742006.     BUFFER LENGTH:  32768
 NUMBER OF SEGMENTS:   1  SEGMENT LENGTH:   10742006      RECORD LENGTH: 524288

 Memory used in sort:      11.30 MW

 SORT1 READ    23425846. AND WROTE     5448550. INTEGRALS IN     16 RECORDS. CPU TIME:     0.20 SEC, REAL TIME:     0.27 SEC
 SORT2 READ    10904036. AND WROTE    21487290. INTEGRALS IN    216 RECORDS. CPU TIME:     0.13 SEC, REAL TIME:     0.18 SEC

 Node minimum:    10742006.  Node maximum:    10745284. integrals

 OPERATOR DM      FOR CENTER  0  COORDINATES:    0.000000    0.000000    0.000000


 **********************************************************************************************************************************
 DATASETS  * FILE   NREC   LENGTH (MB)   RECORD NAMES
              1      18       30.64       500      610      700      900      950      970     1000      129      960     1100   
                                          VAR    BASINP    GEOM    SYMINP    ZMAT    AOBASIS   BASIS     P2S    ABASIS      S 
                                         1400     1410     1200     1210     1080     1600     1650     1700   
                                           T        V       H0       H01     AOSYM     SMH    MOLCAS    OPER   

 PROGRAMS   *        TOTAL       INT
 CPU TIMES  *         1.43      1.35
 REAL TIME  *         1.73 SEC
 DISK USED  *        31.13 MB (local),      244.76 MB (total)
 GA USED    *         0.00 MB       (max)       0.00 MB       (current)
 **********************************************************************************************************************************

 Density functional group B3LYP=B88+DIRAC+LYP+VWN5
 Functional: B88(Automatically generated (new) B88)                            Gradient terms: 1
 Functional: DIRAC(Automatically generated (new) DIRAC)                        Gradient terms: 0
 Functional: LYP(Automatically generated (new) LYP)                            Gradient terms: 1
 Functional: VWN5(Automatically generated (new) VWN5)                          Gradient terms: 0
 Use libxcgrid:  F
 Use grid at  1800.2


 Exact exchange will be calculated, factor:  0.2000

 Functional: B88                       Factor:  0.7200
 Functional: DIRAC                     Factor:  0.0800
 Functional: LYP                       Factor:  0.8100
 Functional: VWN5                      Factor:  0.1900

 Generated new metagrid on record  1800.2 with target accuracy 1.0D-06 and 52164 points in CPU time    0.3
 Computed new grid on record 1800.1 in CPU time    0.4
   95244 words reserved for DFT integration

 PROGRAM * RKS-SCF (Restricted closed shell Kohn-Sham)     Authors: W. Meyer, H.-J. Werner, P.J. Knowles, 1993

 NUMBER OF ELECTRONS:      21+   21-    SPACE SYMMETRY=1    SPIN SYMMETRY: Singlet 
 CONVERGENCE THRESHOLDS:    1.00E-06 (Density)    1.00E-06 (Energy)
 MAX. NUMBER OF ITERATIONS:       60
 INTERPOLATION TYPE:            DIIS
 INTERPOLATION STEPS:              2 (START)      1 (STEP)
 LEVEL SHIFTS:                  0.00 (CLOSED)  0.00 (OPEN) 



 Use fine grid record 1800.2 for energy threshold  1.0D-06
 Orbital guess generated from atomic densities. Full valence occupancy:   36

 Molecular orbital dump at record        2100.2

 Initial occupancy:  21

 ITERATION    DDIFF          GRAD             ENERGY        2-EL.EN.            DIPOLE MOMENTS         DIIS   ORB.
    1      0.000D+00      0.000D+00      -231.95010328    630.406732   -0.00000   -0.00000   -0.00000    0    start
    2      0.000D+00      0.804D-02      -231.91207263    602.253844   -0.00000    0.00000    0.00000    1    diag
    3      0.328D-01      0.949D-02      -232.10525157    616.890554    0.00000   -0.00000    0.00000    2    diag
    4      0.156D-01      0.473D-03      -232.10565756    616.927392   -0.00000    0.00000   -0.00000    3    diag
    5      0.691D-03      0.650D-04      -232.10566582    616.926191    0.00000   -0.00000    0.00000    4    diag
    6      0.850D-04      0.352D-05      -232.10566585    616.930988    0.00000    0.00000   -0.00000    5    diag
    7      0.106D-04      0.186D-06      -232.10566585    616.930911   -0.00000   -0.00000    0.00000    6    diag
    8      0.566D-06      0.199D-07      -232.10566585    616.930866    0.00000    0.00000   -0.00000    0    orth

 Final occupancy:  21

 !RKS STATE  1.1 Energy              -232.105665854261
 Nuclear energy                       205.34887199
 One-electron energy                 -717.86185106
 Two-electron energy                  308.46543321
 SCF exchange energy                  -33.31068955     Factor= 0.2000
 Density functional                   -28.05812000     B88=-33.36090405 DIRAC=-30.01579168 LYP= -1.39131227 VWN5= -2.68443581
 Virial quotient                       -1.00516857
 !RKS STATE  1.1 Dipole moment          0.00000000     0.00000000    -0.00000000
 Dipole moment /Debye                   0.00000000     0.00000000    -0.00000000

 Orbital energies:

         1.1          2.1          3.1          4.1          5.1          6.1          7.1          8.1          9.1         10.1
    -10.181502   -10.181258   -10.181254   -10.180712   -10.180708   -10.180461    -0.856638    -0.746260    -0.746258    -0.601593

        11.1         12.1         13.1         14.1         15.1         16.1         17.1         18.1         19.1         20.1
     -0.601591    -0.523604    -0.457569    -0.445161    -0.419546    -0.419542    -0.367292    -0.340354    -0.340353    -0.251400

        21.1         22.1         23.1
     -0.251399     0.000800     0.000804


 HOMO     21.1    -0.251399 =      -6.8409eV
 LUMO     22.1     0.000800 =       0.0218eV
 LUMO-HOMO         0.252199 =       6.8627eV


 **********************************************************************************************************************************
 DATASETS  * FILE   NREC   LENGTH (MB)   RECORD NAMES
              1      19       30.64       500      610      700      900      950      970     1000      129      960     1100   
                                          VAR    BASINP    GEOM    SYMINP    ZMAT    AOBASIS   BASIS     P2S    ABASIS      S 
                                         1400     1410     1200     1210     1080     1600     1650     1700     1800   
                                           T        V       H0       H01     AOSYM     SMH    MOLCAS    OPER     GRID   

              2       5        3.22       700     1000      520     1800     2100   
                                         GEOM     BASIS   MCVARS    GRID      RKS  

 PROGRAMS   *        TOTAL    KS-SCF       INT
 CPU TIMES  *         3.33      1.90      1.35
 REAL TIME  *         3.66 SEC
 DISK USED  *        34.71 MB (local),      251.91 MB (total)
 SF USED    *         0.05 MB
 GA USED    *         1.73 MB       (max)       1.73 MB       (current)
 **********************************************************************************************************************************


 PROGRAM * OPT (Geometry optimization)     Authors: F. Eckert and H.-J. Werner


 BFGS update of hessian

 *** Long output written to logfile /home/satyam/Downloads/adt-new/ADT-Program/test_runs/optimization/MOLPRO/C6H6/optg_mol.log ***


 Geometry optimization using default procedure for command KS-SCF

 Geometry written to block  1 of record 700

 Making model hessian for cartesian coordinates

 Entering Rational Function Geometry Optimization

 ITER.   ENERGY(OLD)    ENERGY(NEW)      DE          GRADMAX     GRADNORM    GRADRMS     STEPMAX     STEPLEN     STEPRMS   CPU-time
   1  -232.10566585  -232.10845365    -0.00278780  0.03361628  0.03411010  0.00113700  0.13265729  0.13271439  0.03831134      5.59
   2  -232.10845365  -232.10865961    -0.00020596  0.00859476  0.00871827  0.00029061  0.04546700  0.04548583  0.01313063     10.85
 Freezing grid
   3  -232.10865961  -232.10864845     0.00001116  0.00041664  0.00043309  0.00001444  0.00231828  0.00232071  0.00066993     16.22
   4  -232.10864845  -232.10864846    -0.00000001  0.00002060  0.00002230  0.00000074  0.00007192  0.00008034  0.00002319     20.82

 END OF GEOMETRY OPTIMIZATION.

 Current geometry (xyz format, in Angstrom)

   12
 KS-SCF000/CC-PVDZ  ENERGY=-232.10864846
 C          1.3989915939        0.0000000015        0.0000000000
 C          0.6994950183       -1.2115597921        0.0000000000
 C         -0.6994950148       -1.2115597936        0.0000000000
 C         -1.3989915931        0.0000000015        0.0000000000
 C         -0.6994950146        1.2115597940        0.0000000000
 C          0.6994950182        1.2115597925        0.0000000000
 H          2.4920140557        0.0000000015        0.0000000000
 H          1.2459714758       -2.1581883848        0.0000000000
 H         -1.2459714782       -2.1581883849        0.0000000000
 H         -2.4920140584        0.0000000020        0.0000000000
 H         -1.2459714822        2.1581883811        0.0000000000
 H          1.2459714794        2.1581883813        0.0000000000

 **********************************************************************************************************************************

 Geometry written to block  1 of record 700


 **********************************************************************************************************************************
 DATASETS  * FILE   NREC   LENGTH (MB)   RECORD NAMES
              1      19       30.64       500      610      700      900      950      970     1000      129      960     1100   
                                          VAR    BASINP    GEOM    SYMINP    ZMAT    AOBASIS   BASIS     P2S    ABASIS      S 
                                         1400     1410     1200     1210     1080     1600     1650     1700     1800   
                                           T        V       H0       H01     AOSYM     SMH    MOLCAS    OPER     GRID   

              2       5        3.22       700     1000      520     1800     2100   
                                         GEOM     BASIS   MCVARS    GRID      RKS  

 PROGRAMS   *        TOTAL      OPTG    KS-SCF       INT
 CPU TIMES  *        24.15     20.82      1.90      1.35
 REAL TIME  *        27.68 SEC
 DISK USED  *        34.71 MB (local),      251.91 MB (total)
 SF USED    *         0.05 MB
 GA USED    *         1.75 MB       (max)       1.71 MB       (current)
 **********************************************************************************************************************************


 PROGRAM * HESSIAN

 Computing numerical hessian using default procedure for command KS-SCF

 Symmetry elements for unique displacements: X  Y  Z  

 Using no symmetry in wavefunction calculations

 Running default procedure: KS-SCF000


 Recomputing wavefunction at reference geometry

 Numerically approximating hessian using central gradient differences

 Task list generated. Total number of displacements:     18

    5 tasks completed, CPU=29s Elapsed=31s
   10 tasks completed, CPU=57s Elapsed=1m 2s
   15 tasks completed, CPU=1m 25s Elapsed=1m 31s

 Numerical KS-SCF000 hessian completed. CPU-time:   102.38 sec, Elapsed:   110.03 sec

 KS-SCF hessian saved to record  5300.2

 PROGRAM * FREQUENCIES (Calculation of harmonic vibrational spectra for KS-SCF)


 Permanent Dipole Moment [debye]
   1-  3   -0.000007   -0.000004    0.000000

 Dipole Moment Norm    0.0000077 [debye]

 Dipole Moment Derivatives [debye/ang]
                   1             2             3             4             5             6             7             8
         1     0.5607276     0.0000000     0.0000000    -0.0905118    -0.3772310     0.0000000    -0.0905118     0.3772310
         2     0.0000025    -0.3083446     0.0000000    -0.3789117     0.3443661     0.0000000     0.3789117     0.3443661
         3     0.0000000     0.0000000    -0.5218268     0.0000000     0.0000000    -0.5222853     0.0000000     0.0000000
                   9            10            11            12            13            14            15            16
         1     0.0000000     0.5607276     0.0000000     0.0000000    -0.0905118    -0.3772310     0.0000000    -0.0905118
         2     0.0000000    -0.0000025    -0.3083446     0.0000000    -0.3789117     0.3443661     0.0000000     0.3789117
         3    -0.5222853     0.0000000     0.0000000    -0.5218268     0.0000000     0.0000000    -0.5222853     0.0000000
                  17            18            19            20            21            22            23            24
         1     0.3772310     0.0000000    -0.5434904     0.0000000     0.0000000     0.0821213     0.3619951     0.0000000
         2     0.3443661     0.0000000    -0.0000011     0.2910662     0.0000000     0.3639017    -0.3352395     0.0000000
         3     0.0000000    -0.5222853     0.0000000     0.0000000     0.5219180     0.0000000     0.0000000     0.5220641
                  25            26            27            28            29            30            31            32
         1     0.0821213    -0.3619951     0.0000000    -0.5434904     0.0000000     0.0000000     0.0821213     0.3619951
         2    -0.3639017    -0.3352395     0.0000000     0.0000011     0.2910662     0.0000000     0.3639017    -0.3352395
         3     0.0000000     0.0000000     0.5220641     0.0000000     0.0000000     0.5219180     0.0000000     0.0000000
                  33            34            35            36
         1     0.0000000     0.0821213    -0.3619951     0.0000000
         2     0.0000000    -0.3639017    -0.3352395     0.0000000
         3     0.5220641     0.0000000     0.0000000     0.5220641

 Projecting out rotations and translations

 Force Constants (Second Derivatives of the Energy) in [a.u.]
                             CX1         CY1         CZ1         CX2         CY2     
           CX1           0.7380523
           CY1           0.0000000   0.6676747
           CZ1           0.0000000   0.0000000   0.1362314
           CX2          -0.1794487  -0.0603487   0.0000000   0.6852198
           CY2          -0.1265850  -0.2873935   0.0000000  -0.0304312   0.7204468
           CZ2           0.0000000   0.0000000  -0.0640924   0.0000000   0.0000000
           CX3          -0.0269134  -0.0770367   0.0000000  -0.3414155   0.0331194
           CY3          -0.0284837   0.0340073   0.0000000  -0.0331194  -0.1254900
           CZ3           0.0000000   0.0000000   0.0082461   0.0000000   0.0000000
           CX4          -0.0010826   0.0000000   0.0000000  -0.0269134   0.0284837
           CY4          -0.0000000  -0.0694413   0.0000000   0.0770367   0.0340073
           CZ4           0.0000000   0.0000000  -0.0077409   0.0000000   0.0000000
           CX5          -0.0269134   0.0770367   0.0000000  -0.0523507  -0.0295995
           CY5           0.0284837   0.0340073   0.0000000  -0.0295995  -0.0181691
           CZ5           0.0000000   0.0000000   0.0082461   0.0000000   0.0000000
           CX6          -0.1794487   0.0603487   0.0000000   0.0644549   0.0242587
           CY6           0.1265850  -0.2873935   0.0000000  -0.0242587  -0.0573486
           CZ6           0.0000000   0.0000000  -0.0640924   0.0000000   0.0000000
           HX7          -0.3356305   0.0000000   0.0000000  -0.0116408   0.0037759
           HY7           0.0000000  -0.0579164   0.0000000  -0.0278324   0.0045037
           HZ7           0.0000000   0.0000000  -0.0369277   0.0000000   0.0000000
           HX8           0.0108784  -0.0148305   0.0000000  -0.1272584   0.1201905
           HY8           0.0167725  -0.0180433   0.0000000   0.1201596  -0.2662000
           HZ8           0.0000000   0.0000000   0.0032211   0.0000000   0.0000000
           HX9          -0.0055771   0.0014394   0.0000000  -0.0099516  -0.0287989
           HY9           0.0003354   0.0019044   0.0000000   0.0028084   0.0028032
           HZ9           0.0000000   0.0000000   0.0071798   0.0000000   0.0000000
           HX10          0.0007826   0.0000000   0.0000000   0.0007938   0.0033459
           HY10         -0.0000000  -0.0012668   0.0000000   0.0022414  -0.0044744
           HZ10          0.0000000   0.0000000  -0.0006718   0.0000000   0.0000000
           HX11         -0.0055771  -0.0014394   0.0000000  -0.0007530  -0.0008946
           HY11         -0.0003354   0.0019044   0.0000000  -0.0008758   0.0002710
           HZ11          0.0000000   0.0000000   0.0071798   0.0000000   0.0000000
           HX12          0.0108784   0.0148305   0.0000000  -0.0007365   0.0031352
           HY12         -0.0167725  -0.0180433   0.0000000   0.0042196  -0.0029563
           HZ12          0.0000000   0.0000000   0.0032211   0.0000000   0.0000000
                             CZ2         CX3         CY3         CZ3         CX4     
           CZ2           0.1362281
           CX3           0.0000000   0.6852198
           CY3           0.0000000   0.0304312   0.7204468
           CZ3          -0.0641046   0.0000000   0.0000000   0.1362281
           CX4           0.0000000  -0.1794487   0.1265850   0.0000000   0.7380523
           CY4           0.0000000   0.0603487  -0.2873935   0.0000000  -0.0000000
           CZ4           0.0082461   0.0000000   0.0000000  -0.0640924   0.0000000
           CX5           0.0000000   0.0644549  -0.0242587   0.0000000  -0.1794487
           CY5           0.0000000   0.0242587  -0.0573486   0.0000000  -0.1265850
           CZ5          -0.0077287   0.0000000   0.0000000   0.0082498   0.0000000
           CX6           0.0000000  -0.0523507   0.0295995   0.0000000  -0.0269134
           CY6           0.0000000   0.0295995  -0.0181691   0.0000000  -0.0284837
           CZ6           0.0082498   0.0000000   0.0000000  -0.0077287   0.0000000
           HX7           0.0000000   0.0007938  -0.0033459   0.0000000   0.0007826
           HY7           0.0000000  -0.0022414  -0.0044744   0.0000000   0.0000000
           HZ7           0.0032091   0.0000000   0.0000000   0.0071830   0.0000000
           HX8           0.0000000  -0.0099516   0.0287989   0.0000000  -0.0055771
           HY8           0.0000000  -0.0028084   0.0028032   0.0000000  -0.0003354
           HZ8          -0.0369097   0.0000000   0.0000000   0.0032165   0.0000000
           HX9           0.0000000  -0.1272584  -0.1201905   0.0000000   0.0108784
           HY9           0.0000000  -0.1201596  -0.2662000   0.0000000  -0.0167725
           HZ9           0.0032165   0.0000000   0.0000000  -0.0369097   0.0000000
           HX10          0.0000000  -0.0116408  -0.0037759   0.0000000  -0.3356305
           HY10          0.0000000   0.0278324   0.0045037   0.0000000  -0.0000000
           HZ10          0.0071830   0.0000000   0.0000000   0.0032091   0.0000000
           HX11          0.0000000  -0.0007365  -0.0031352   0.0000000   0.0108784
           HY11          0.0000000  -0.0042196  -0.0029563   0.0000000   0.0167725
           HZ11         -0.0006779   0.0000000   0.0000000   0.0071806   0.0000000
           HX12          0.0000000  -0.0007530   0.0008946   0.0000000  -0.0055771
           HY12          0.0000000   0.0008758   0.0002710   0.0000000   0.0003354
           HZ12          0.0071806   0.0000000   0.0000000  -0.0006779   0.0000000
                             CY4         CZ4         CX5         CY5         CZ5     
           CY4           0.6676747
           CZ4           0.0000000   0.1362314
           CX5          -0.0603487   0.0000000   0.6852198
           CY5          -0.2873935   0.0000000  -0.0304312   0.7204468
           CZ5           0.0000000  -0.0640924   0.0000000   0.0000000   0.1362281
           CX6          -0.0770367   0.0000000  -0.3414155   0.0331194   0.0000000
           CY6           0.0340073   0.0000000  -0.0331194  -0.1254900   0.0000000
           CZ6           0.0000000   0.0082461   0.0000000   0.0000000  -0.0641046
           HX7          -0.0000000   0.0000000   0.0007938   0.0033459   0.0000000
           HY7          -0.0012668   0.0000000   0.0022414  -0.0044744   0.0000000
           HZ7           0.0000000  -0.0006718   0.0000000   0.0000000   0.0071830
           HX8          -0.0014394   0.0000000  -0.0007530  -0.0008946   0.0000000
           HY8           0.0019044   0.0000000  -0.0008758   0.0002710   0.0000000
           HZ8           0.0000000   0.0071798   0.0000000   0.0000000  -0.0006779
           HX9           0.0148305   0.0000000  -0.0007365   0.0031352   0.0000000
           HY9          -0.0180433   0.0000000   0.0042196  -0.0029563   0.0000000
           HZ9           0.0000000   0.0032211   0.0000000   0.0000000   0.0071806
           HX10         -0.0000000   0.0000000  -0.0116408   0.0037759   0.0000000
           HY10         -0.0579164   0.0000000  -0.0278324   0.0045037   0.0000000
           HZ10          0.0000000  -0.0369277   0.0000000   0.0000000   0.0032091
           HX11         -0.0148305   0.0000000  -0.1272584   0.1201905   0.0000000
           HY11         -0.0180433   0.0000000   0.1201596  -0.2662000   0.0000000
           HZ11          0.0000000   0.0032211   0.0000000   0.0000000  -0.0369097
           HX12          0.0014394   0.0000000  -0.0099516  -0.0287989   0.0000000
           HY12          0.0019044   0.0000000   0.0028084   0.0028032   0.0000000
           HZ12          0.0000000   0.0071798   0.0000000   0.0000000   0.0032165
                             CX6         CY6         CZ6         HX7         HY7     
           CX6           0.6852198
           CY6           0.0304312   0.7204468
           CZ6           0.0000000   0.0000000   0.1362281
           HX7          -0.0116408  -0.0037759   0.0000000   0.3561598
           HY7           0.0278324   0.0045037   0.0000000   0.0000000   0.0567336
           HZ7           0.0000000   0.0000000   0.0032091   0.0000000   0.0000000
           HX8          -0.0007365  -0.0031352   0.0000000   0.0009199   0.0004670
           HY8          -0.0042196  -0.0029563   0.0000000  -0.0001733   0.0010880
           HZ8           0.0000000   0.0000000   0.0071806   0.0000000   0.0000000
           HX9          -0.0007530   0.0008946   0.0000000  -0.0006843  -0.0014085
           HY9           0.0008758   0.0002710   0.0000000   0.0001758   0.0000291
           HZ9           0.0000000   0.0000000  -0.0006779   0.0000000   0.0000000
           HX10          0.0007938  -0.0033459   0.0000000  -0.0000893   0.0000000
           HY10         -0.0022414  -0.0044744   0.0000000  -0.0000000   0.0001571
           HZ10          0.0000000   0.0000000   0.0071830   0.0000000   0.0000000
           HX11         -0.0099516   0.0287989   0.0000000  -0.0006843   0.0014085
           HY11         -0.0028084   0.0028032   0.0000000  -0.0001758   0.0000291
           HZ11          0.0000000   0.0000000   0.0032165   0.0000000   0.0000000
           HX12         -0.1272584  -0.1201905   0.0000000   0.0009199  -0.0004670
           HY12         -0.1201596  -0.2662000   0.0000000   0.0001733   0.0010880
           HZ12          0.0000000   0.0000000  -0.0369097   0.0000000   0.0000000
                             HZ7         HX8         HY8         HZ8         HX9     
           HZ7           0.0256402
           HX8           0.0000000   0.1315079
           HY8           0.0000000  -0.1295625   0.2813360
           HZ8          -0.0040457   0.0000000   0.0000000   0.0256160
           HX9           0.0000000   0.0011737   0.0003163   0.0000000   0.1315079
           HY9           0.0000000  -0.0003163   0.0008379   0.0000000   0.1295625
           HZ9           0.0002565   0.0000000   0.0000000  -0.0040439   0.0000000
           HX10          0.0000000  -0.0006843  -0.0001758   0.0000000   0.0009199
           HY10          0.0000000   0.0014085   0.0000291   0.0000000  -0.0004670
           HZ10         -0.0012465   0.0000000   0.0000000   0.0002565   0.0000000
           HX11          0.0000000   0.0000966   0.0001080   0.0000000   0.0003842
           HY11          0.0000000   0.0001080  -0.0000264   0.0000000   0.0007943
           HZ11          0.0002565   0.0000000   0.0000000  -0.0012490   0.0000000
           HX12          0.0000000   0.0003842   0.0007943   0.0000000   0.0000966
           HY12          0.0000000  -0.0007943  -0.0010434   0.0000000  -0.0001080
           HZ12         -0.0040457   0.0000000   0.0000000   0.0002558   0.0000000
                             HY9         HZ9         HX10        HY10        HZ10    
           HY9           0.2813360
           HZ9           0.0000000   0.0256160
           HX10          0.0001733   0.0000000   0.3561598
           HY10          0.0010880   0.0000000  -0.0000000   0.0567336
           HZ10          0.0000000  -0.0040457   0.0000000   0.0000000   0.0256402
           HX11         -0.0007943   0.0000000   0.0009199   0.0004670   0.0000000
           HY11         -0.0010434   0.0000000  -0.0001733   0.0010880   0.0000000
           HZ11          0.0000000   0.0002558   0.0000000   0.0000000  -0.0040457
           HX12         -0.0001080   0.0000000  -0.0006843  -0.0014085   0.0000000
           HY12         -0.0000264   0.0000000   0.0001758   0.0000291   0.0000000
           HZ12          0.0000000  -0.0012490   0.0000000   0.0000000   0.0002565
                             HX11        HY11        HZ11        HX12        HY12    
           HX11          0.1315079
           HY11         -0.1295625   0.2813360
           HZ11          0.0000000   0.0000000   0.0256160
           HX12          0.0011737   0.0003163   0.0000000   0.1315079
           HY12         -0.0003163   0.0008379   0.0000000   0.1295625   0.2813360
           HZ12          0.0000000   0.0000000  -0.0040439   0.0000000   0.0000000
                             HZ12    
           HZ12          0.0256160


 Atomic Masses
   1- 10   12.011000   12.011000   12.011000   12.011000   12.011000   12.011000    1.007940    1.007940    1.007940    1.007940
  11- 12    1.007940    1.007940

 Mass weighted Second Derivative Matrix
                             CX1         CY1         CZ1         CX2         CY2     
           CX1           0.0614480
           CY1           0.0000000   0.0555886
           CZ1           0.0000000   0.0000000   0.0113422
           CX2          -0.0149404  -0.0050245   0.0000000   0.0570494
           CY2          -0.0105391  -0.0239275   0.0000000  -0.0025336   0.0599823
           CZ2           0.0000000   0.0000000  -0.0053361   0.0000000   0.0000000
           CX3          -0.0022407  -0.0064138   0.0000000  -0.0284252   0.0027574
           CY3          -0.0023715   0.0028314   0.0000000  -0.0027574  -0.0104479
           CZ3           0.0000000   0.0000000   0.0006865   0.0000000   0.0000000
           CX4          -0.0000901   0.0000000   0.0000000  -0.0022407   0.0023715
           CY4          -0.0000000  -0.0057815   0.0000000   0.0064138   0.0028314
           CZ4           0.0000000   0.0000000  -0.0006445   0.0000000   0.0000000
           CX5          -0.0022407   0.0064138   0.0000000  -0.0043586  -0.0024644
           CY5           0.0023715   0.0028314   0.0000000  -0.0024644  -0.0015127
           CZ5           0.0000000   0.0000000   0.0006865   0.0000000   0.0000000
           CX6          -0.0149404   0.0050245   0.0000000   0.0053663   0.0020197
           CY6           0.0105391  -0.0239275   0.0000000  -0.0020197  -0.0047747
           CZ6           0.0000000   0.0000000  -0.0053361   0.0000000   0.0000000
           HX7          -0.0964616   0.0000000   0.0000000  -0.0033456   0.0010852
           HY7           0.0000000  -0.0166454   0.0000000  -0.0079992   0.0012944
           HZ7           0.0000000   0.0000000  -0.0106132   0.0000000   0.0000000
           HX8           0.0031265  -0.0042624   0.0000000  -0.0365746   0.0345433
           HY8           0.0048205  -0.0051857   0.0000000   0.0345344  -0.0765070
           HZ8           0.0000000   0.0000000   0.0009257   0.0000000   0.0000000
           HX9          -0.0016029   0.0004137   0.0000000  -0.0028601  -0.0082769
           HY9           0.0000964   0.0005473   0.0000000   0.0008071   0.0008057
           HZ9           0.0000000   0.0000000   0.0020635   0.0000000   0.0000000
           HX10          0.0002249   0.0000000   0.0000000   0.0002281   0.0009616
           HY10         -0.0000000  -0.0003641   0.0000000   0.0006442  -0.0012860
           HZ10          0.0000000   0.0000000  -0.0001931   0.0000000   0.0000000
           HX11         -0.0016029  -0.0004137   0.0000000  -0.0002164  -0.0002571
           HY11         -0.0000964   0.0005473   0.0000000  -0.0002517   0.0000779
           HZ11          0.0000000   0.0000000   0.0020635   0.0000000   0.0000000
           HX12          0.0031265   0.0042624   0.0000000  -0.0002117   0.0009011
           HY12         -0.0048205  -0.0051857   0.0000000   0.0012127  -0.0008497
           HZ12          0.0000000   0.0000000   0.0009257   0.0000000   0.0000000
                             CZ2         CX3         CY3         CZ3         CX4     
           CZ2           0.0113419
           CX3           0.0000000   0.0570494
           CY3           0.0000000   0.0025336   0.0599823
           CZ3          -0.0053372   0.0000000   0.0000000   0.0113419
           CX4           0.0000000  -0.0149404   0.0105391   0.0000000   0.0614480
           CY4           0.0000000   0.0050245  -0.0239275   0.0000000  -0.0000000
           CZ4           0.0006865   0.0000000   0.0000000  -0.0053361   0.0000000
           CX5           0.0000000   0.0053663  -0.0020197   0.0000000  -0.0149404
           CY5           0.0000000   0.0020197  -0.0047747   0.0000000  -0.0105391
           CZ5          -0.0006435   0.0000000   0.0000000   0.0006869   0.0000000
           CX6           0.0000000  -0.0043586   0.0024644   0.0000000  -0.0022407
           CY6           0.0000000   0.0024644  -0.0015127   0.0000000  -0.0023715
           CZ6           0.0006869   0.0000000   0.0000000  -0.0006435   0.0000000
           HX7           0.0000000   0.0002281  -0.0009616   0.0000000   0.0002249
           HY7           0.0000000  -0.0006442  -0.0012860   0.0000000   0.0000000
           HZ7           0.0009223   0.0000000   0.0000000   0.0020644   0.0000000
           HX8           0.0000000  -0.0028601   0.0082769   0.0000000  -0.0016029
           HY8           0.0000000  -0.0008071   0.0008057   0.0000000  -0.0000964
           HZ8          -0.0106080   0.0000000   0.0000000   0.0009244   0.0000000
           HX9           0.0000000  -0.0365746  -0.0345433   0.0000000   0.0031265
           HY9           0.0000000  -0.0345344  -0.0765070   0.0000000  -0.0048205
           HZ9           0.0009244   0.0000000   0.0000000  -0.0106080   0.0000000
           HX10          0.0000000  -0.0033456  -0.0010852   0.0000000  -0.0964616
           HY10          0.0000000   0.0079992   0.0012944   0.0000000  -0.0000000
           HZ10          0.0020644   0.0000000   0.0000000   0.0009223   0.0000000
           HX11          0.0000000  -0.0002117  -0.0009011   0.0000000   0.0031265
           HY11          0.0000000  -0.0012127  -0.0008497   0.0000000   0.0048205
           HZ11         -0.0001948   0.0000000   0.0000000   0.0020637   0.0000000
           HX12          0.0000000  -0.0002164   0.0002571   0.0000000  -0.0016029
           HY12          0.0000000   0.0002517   0.0000779   0.0000000   0.0000964
           HZ12          0.0020637   0.0000000   0.0000000  -0.0001948   0.0000000
                             CY4         CZ4         CX5         CY5         CZ5     
           CY4           0.0555886
           CZ4           0.0000000   0.0113422
           CX5          -0.0050245   0.0000000   0.0570494
           CY5          -0.0239275   0.0000000  -0.0025336   0.0599823
           CZ5           0.0000000  -0.0053361   0.0000000   0.0000000   0.0113419
           CX6          -0.0064138   0.0000000  -0.0284252   0.0027574   0.0000000
           CY6           0.0028314   0.0000000  -0.0027574  -0.0104479   0.0000000
           CZ6           0.0000000   0.0006865   0.0000000   0.0000000  -0.0053372
           HX7          -0.0000000   0.0000000   0.0002281   0.0009616   0.0000000
           HY7          -0.0003641   0.0000000   0.0006442  -0.0012860   0.0000000
           HZ7           0.0000000  -0.0001931   0.0000000   0.0000000   0.0020644
           HX8          -0.0004137   0.0000000  -0.0002164  -0.0002571   0.0000000
           HY8           0.0005473   0.0000000  -0.0002517   0.0000779   0.0000000
           HZ8           0.0000000   0.0020635   0.0000000   0.0000000  -0.0001948
           HX9           0.0042624   0.0000000  -0.0002117   0.0009011   0.0000000
           HY9          -0.0051857   0.0000000   0.0012127  -0.0008497   0.0000000
           HZ9           0.0000000   0.0009257   0.0000000   0.0000000   0.0020637
           HX10         -0.0000000   0.0000000  -0.0033456   0.0010852   0.0000000
           HY10         -0.0166454   0.0000000  -0.0079992   0.0012944   0.0000000
           HZ10          0.0000000  -0.0106132   0.0000000   0.0000000   0.0009223
           HX11         -0.0042624   0.0000000  -0.0365746   0.0345433   0.0000000
           HY11         -0.0051857   0.0000000   0.0345344  -0.0765070   0.0000000
           HZ11          0.0000000   0.0009257   0.0000000   0.0000000  -0.0106080
           HX12          0.0004137   0.0000000  -0.0028601  -0.0082769   0.0000000
           HY12          0.0005473   0.0000000   0.0008071   0.0008057   0.0000000
           HZ12          0.0000000   0.0020635   0.0000000   0.0000000   0.0009244
                             CX6         CY6         CZ6         HX7         HY7     
           CX6           0.0570494
           CY6           0.0025336   0.0599823
           CZ6           0.0000000   0.0000000   0.0113419
           HX7          -0.0033456  -0.0010852   0.0000000   0.3533542
           HY7           0.0079992   0.0012944   0.0000000   0.0000000   0.0562867
           HZ7           0.0000000   0.0000000   0.0009223   0.0000000   0.0000000
           HX8          -0.0002117  -0.0009011   0.0000000   0.0009127   0.0004633
           HY8          -0.0012127  -0.0008497   0.0000000  -0.0001719   0.0010794
           HZ8           0.0000000   0.0000000   0.0020637   0.0000000   0.0000000
           HX9          -0.0002164   0.0002571   0.0000000  -0.0006789  -0.0013974
           HY9           0.0002517   0.0000779   0.0000000   0.0001745   0.0000288
           HZ9           0.0000000   0.0000000  -0.0001948   0.0000000   0.0000000
           HX10          0.0002281  -0.0009616   0.0000000  -0.0000886   0.0000000
           HY10         -0.0006442  -0.0012860   0.0000000  -0.0000000   0.0001558
           HZ10          0.0000000   0.0000000   0.0020644   0.0000000   0.0000000
           HX11         -0.0028601   0.0082769   0.0000000  -0.0006789   0.0013974
           HY11         -0.0008071   0.0008057   0.0000000  -0.0001745   0.0000288
           HZ11          0.0000000   0.0000000   0.0009244   0.0000000   0.0000000
           HX12         -0.0365746  -0.0345433   0.0000000   0.0009127  -0.0004633
           HY12         -0.0345344  -0.0765070   0.0000000   0.0001719   0.0010794
           HZ12          0.0000000   0.0000000  -0.0106080   0.0000000   0.0000000
                             HZ7         HX8         HY8         HZ8         HX9     
           HZ7           0.0254382
           HX8           0.0000000   0.1304720
           HY8           0.0000000  -0.1285419   0.2791198
           HZ8          -0.0040138   0.0000000   0.0000000   0.0254142
           HX9           0.0000000   0.0011645   0.0003138   0.0000000   0.1304720
           HY9           0.0000000  -0.0003138   0.0008313   0.0000000   0.1285419
           HZ9           0.0002545   0.0000000   0.0000000  -0.0040121   0.0000000
           HX10          0.0000000  -0.0006789  -0.0001745   0.0000000   0.0009127
           HY10          0.0000000   0.0013974   0.0000288   0.0000000  -0.0004633
           HZ10         -0.0012367   0.0000000   0.0000000   0.0002545   0.0000000
           HX11          0.0000000   0.0000958   0.0001071   0.0000000   0.0003812
           HY11          0.0000000   0.0001071  -0.0000262   0.0000000   0.0007881
           HZ11          0.0002545   0.0000000   0.0000000  -0.0012391   0.0000000
           HX12          0.0000000   0.0003812   0.0007881   0.0000000   0.0000958
           HY12          0.0000000  -0.0007881  -0.0010352   0.0000000  -0.0001071
           HZ12         -0.0040138   0.0000000   0.0000000   0.0002538   0.0000000
                             HY9         HZ9         HX10        HY10        HZ10    
           HY9           0.2791198
           HZ9           0.0000000   0.0254142
           HX10          0.0001719   0.0000000   0.3533542
           HY10          0.0010794   0.0000000  -0.0000000   0.0562867
           HZ10          0.0000000  -0.0040138   0.0000000   0.0000000   0.0254382
           HX11         -0.0007881   0.0000000   0.0009127   0.0004633   0.0000000
           HY11         -0.0010352   0.0000000  -0.0001719   0.0010794   0.0000000
           HZ11          0.0000000   0.0002538   0.0000000   0.0000000  -0.0040138
           HX12         -0.0001071   0.0000000  -0.0006789  -0.0013974   0.0000000
           HY12         -0.0000262   0.0000000   0.0001745   0.0000288   0.0000000
           HZ12          0.0000000  -0.0012391   0.0000000   0.0000000   0.0002545
                             HX11        HY11        HZ11        HX12        HY12    
           HX11          0.1304720
           HY11         -0.1285419   0.2791198
           HZ11          0.0000000   0.0000000   0.0254142
           HX12          0.0011645   0.0003138   0.0000000   0.1304720
           HY12         -0.0003138   0.0008313   0.0000000   0.1285419   0.2791198
           HZ12          0.0000000   0.0000000  -0.0040121   0.0000000   0.0000000
                             HZ12    
           HZ12          0.0254142


 Mass Weighted 2nd Derivative Matrix Eigenvalues
   1- 10    0.000000    0.000000    0.000000    0.000000    0.000000    0.000000    0.006482    0.006485    0.014426    0.014433
  11- 20    0.018064    0.019747    0.028349    0.028363    0.036800    0.036815    0.038810    0.039236    0.039480    0.042393
  21- 30    0.042415    0.051080    0.053241    0.053264    0.069552    0.070374    0.085803    0.085821    0.102309    0.102317
  31- 36    0.377960    0.380368    0.380423    0.384311    0.384370    0.386941

 Mass Weighted 2nd Derivative Matrix Eigenvectors
                   1             2             3             4             5             6             7             8
         1     0.0000000     0.3921265     0.0000000     0.0000000     0.0000000     0.0000000     0.0000000     0.0000000
         2     0.5190839     0.0000000     0.0272213    -0.0075113    -0.1038630     0.0659546     0.0000000     0.0000000
         3     0.0484442     0.0000000     0.3528399     0.0331213     0.4826359     0.2369112     0.0000000     0.4857965
         4     0.1556874     0.3921265     0.0995250    -0.0071311    -0.1772204     0.1819693     0.0000000     0.0000000
         5     0.4291975     0.0000000    -0.0302396    -0.0033941    -0.0015445    -0.0391057     0.0000000     0.0000000
         6     0.0305366     0.0000000     0.5901718     0.0421650     0.2194402    -0.1335447     0.4205791    -0.2427987
         7     0.1556874     0.3921265     0.0995250    -0.0071311    -0.1772204     0.1819693     0.0000000     0.0000000
         8     0.2494250     0.0000000    -0.1451613     0.0048401     0.2030922    -0.2492259     0.0000000     0.0000000
         9     0.0011608     0.0000000     0.4287146     0.3188172    -0.1218380    -0.3416356    -0.4205791    -0.2427987
        10     0.0000000     0.3921265     0.0000000     0.0000000     0.0000000     0.0000000     0.0000000     0.0000000
        11     0.1595386     0.0000000    -0.2026222     0.0089572     0.3054107    -0.3542863     0.0000000     0.0000000
        12    -0.0103075     0.0000000     0.0299251     0.5864263    -0.1999213    -0.1792710     0.0000000     0.4857965
        13    -0.1556874     0.3921265    -0.0995250     0.0071311     0.1772204    -0.1819693     0.0000000     0.0000000
        14     0.2494250     0.0000000    -0.1451613     0.0048401     0.2030922    -0.2492259     0.0000000     0.0000000
        15     0.0076001     0.0000000    -0.2074069     0.5773826     0.0632744     0.1911849     0.4205791    -0.2427987
        16    -0.1556874     0.3921265    -0.0995250     0.0071311     0.1772204    -0.1819693     0.0000000     0.0000000
        17     0.4291975     0.0000000    -0.0302396    -0.0033941    -0.0015445    -0.0391057     0.0000000     0.0000000
        18     0.0369760     0.0000000    -0.0459497     0.3007304     0.4045526     0.3992758    -0.4205791    -0.2427987
        19     0.0000000     0.1135936     0.0000000     0.0000000     0.0000000     0.0000000     0.0000000     0.0000000
        20     0.1910593     0.0000000     0.0338959    -0.0040396    -0.0764031     0.0666627     0.0000000     0.0000000
        21     0.0206823     0.0000000     0.1387554    -0.0530199     0.2170545     0.1157271     0.0000000     0.3118599
        22     0.0803389     0.1135936     0.0513576    -0.0036798    -0.0914505     0.0939010     0.0000000     0.0000000
        23     0.1446752     0.0000000     0.0042443    -0.0019150    -0.0236036     0.0124484     0.0000000     0.0000000
        24     0.0114414     0.0000000     0.2612248    -0.0483527     0.0812379    -0.0754384     0.2703945    -0.1562735
        25     0.0803389     0.1135936     0.0513576    -0.0036798    -0.0914505     0.0939010     0.0000000     0.0000000
        26     0.0519123     0.0000000    -0.0550555     0.0023339     0.0819892    -0.0959741     0.0000000     0.0000000
        27    -0.0037166     0.0000000     0.1779126     0.0944004    -0.0948623    -0.1828137    -0.2703945    -0.1562735
        28     0.0000000     0.1135936     0.0000000     0.0000000     0.0000000     0.0000000     0.0000000     0.0000000
        29     0.0055282     0.0000000    -0.0847071     0.0044584     0.1347887    -0.1501884     0.0000000     0.0000000
        30    -0.0096346     0.0000000    -0.0278737     0.2324943    -0.1351559    -0.0990296     0.0000000     0.3118599
        31    -0.0803389     0.1135936    -0.0513576     0.0036798     0.0914505    -0.0939010     0.0000000     0.0000000
        32     0.0519123     0.0000000    -0.0550555     0.0023339     0.0819892    -0.0959741     0.0000000     0.0000000
        33    -0.0003937     0.0000000    -0.1503431     0.2278270     0.0006607     0.0921360     0.2703945    -0.1562735
        34    -0.0803389     0.1135936    -0.0513576     0.0036798     0.0914505    -0.0939010     0.0000000     0.0000000
        35     0.1446752     0.0000000     0.0042443    -0.0019150    -0.0236036     0.0124484     0.0000000     0.0000000
        36     0.0147643     0.0000000    -0.0670309     0.0850740     0.1767608     0.1995113    -0.2703945    -0.1562735
                   9            10            11            12            13            14            15            16
         1     0.5066633     0.0000000     0.0000000     0.0000000     0.0000000     0.0000000     0.0000000     0.0000000
         2     0.0000000     0.2156972     0.0000000     0.0000000     0.0000000     0.0000000     0.0000000     0.0000000
         3     0.0000000     0.0000000    -0.1131365     0.3613996     0.0000000    -0.2643024     0.0000000    -0.3121519
         4     0.0350298    -0.3127737     0.0000000     0.0000000     0.0000000     0.0000000     0.0000000     0.0000000
         5     0.3128223     0.3261468     0.0000000     0.0000000     0.0000000     0.0000000     0.0000000     0.0000000
         6     0.0000000     0.0000000    -0.1138221    -0.3611224    -0.2292856    -0.1328221    -0.2703945     0.1559813
         7    -0.0350298    -0.3127737     0.0000000     0.0000000     0.0000000     0.0000000     0.0000000     0.0000000
         8     0.3128223    -0.3261468     0.0000000     0.0000000     0.0000000     0.0000000     0.0000000     0.0000000
         9     0.0000000     0.0000000    -0.1138221     0.3611224    -0.2292856     0.1328221     0.2703945     0.1559813
        10    -0.5066633     0.0000000     0.0000000     0.0000000     0.0000000     0.0000000     0.0000000     0.0000000
        11     0.0000000    -0.2156972     0.0000000     0.0000000     0.0000000     0.0000000     0.0000000     0.0000000
        12     0.0000000     0.0000000    -0.1131365    -0.3613996     0.0000000     0.2643024     0.0000000    -0.3121519
        13    -0.0350298     0.3127737     0.0000000     0.0000000     0.0000000     0.0000000     0.0000000     0.0000000
        14    -0.3128223    -0.3261468     0.0000000     0.0000000     0.0000000     0.0000000     0.0000000     0.0000000
        15     0.0000000     0.0000000    -0.1138221     0.3611224     0.2292856     0.1328221    -0.2703945     0.1559813
        16     0.0350298     0.3127737     0.0000000     0.0000000     0.0000000     0.0000000     0.0000000     0.0000000
        17    -0.3128223     0.3261468     0.0000000     0.0000000     0.0000000     0.0000000     0.0000000     0.0000000
        18     0.0000000     0.0000000    -0.1138221    -0.3611224     0.2292856    -0.1328221     0.2703945     0.1559813
        19     0.1460109     0.0000000     0.0000000     0.0000000     0.0000000     0.0000000     0.0000000     0.0000000
        20     0.0000000    -0.0935255     0.0000000     0.0000000     0.0000000     0.0000000     0.0000000     0.0000000
        21     0.0000000     0.0000000     0.3920388     0.1898757     0.0000000     0.5128373     0.0000000     0.4859480
        22    -0.1066936    -0.0228084     0.0000000     0.0000000     0.0000000     0.0000000     0.0000000     0.0000000
        23     0.0227630     0.1328326     0.0000000     0.0000000     0.0000000     0.0000000     0.0000000     0.0000000
        24     0.0000000     0.0000000     0.3921701    -0.1904190     0.4443288     0.2567671     0.4205791    -0.2426473
        25     0.1066936    -0.0228084     0.0000000     0.0000000     0.0000000     0.0000000     0.0000000     0.0000000
        26     0.0227630    -0.1328326     0.0000000     0.0000000     0.0000000     0.0000000     0.0000000     0.0000000
        27     0.0000000     0.0000000     0.3921701     0.1904190     0.4443288    -0.2567671    -0.4205791    -0.2426473
        28    -0.1460109     0.0000000     0.0000000     0.0000000     0.0000000     0.0000000     0.0000000     0.0000000
        29     0.0000000     0.0935255     0.0000000     0.0000000     0.0000000     0.0000000     0.0000000     0.0000000
        30     0.0000000     0.0000000     0.3920388    -0.1898757     0.0000000    -0.5128373     0.0000000     0.4859480
        31     0.1066936     0.0228084     0.0000000     0.0000000     0.0000000     0.0000000     0.0000000     0.0000000
        32    -0.0227630    -0.1328326     0.0000000     0.0000000     0.0000000     0.0000000     0.0000000     0.0000000
        33     0.0000000     0.0000000     0.3921701     0.1904190    -0.4443288    -0.2567671     0.4205791    -0.2426473
        34    -0.1066936     0.0228084     0.0000000     0.0000000     0.0000000     0.0000000     0.0000000     0.0000000
        35    -0.0227630     0.1328326     0.0000000     0.0000000     0.0000000     0.0000000     0.0000000     0.0000000
        36     0.0000000     0.0000000     0.3921701    -0.1904190    -0.4443288     0.2567671    -0.4205791    -0.2426473
                  17            18            19            20            21            22            23            24
         1     0.3931398     0.3891488     0.0000000     0.0000000     0.3079991     0.0000000     0.0000000     0.0170451
         2     0.0000000     0.0000000     0.0000000     0.2128019     0.0000000     0.0970604     0.1919947     0.0000000
         3     0.0000000     0.0000000    -0.1905087     0.0000000     0.0000000     0.0000000     0.0000000     0.0000000
         4    -0.1964158     0.1945525     0.0000000     0.2256864    -0.0820060    -0.0846156    -0.0907543     0.1396886
         5     0.3395389    -0.3368240     0.0000000    -0.1783965    -0.2265570    -0.0485324    -0.0351131     0.0910406
         6     0.0000000     0.0000000     0.1901020     0.0000000     0.0000000     0.0000000     0.0000000     0.0000000
         7    -0.1964158    -0.1945525     0.0000000    -0.2256864    -0.0820060     0.0846156    -0.0907543    -0.1396886
         8    -0.3395389    -0.3368240     0.0000000    -0.1783965     0.2265570    -0.0485324     0.0351131     0.0910406
         9     0.0000000     0.0000000    -0.1901020     0.0000000     0.0000000     0.0000000     0.0000000     0.0000000
        10     0.3931398    -0.3891488     0.0000000     0.0000000     0.3079991     0.0000000     0.0000000    -0.0170451
        11     0.0000000     0.0000000     0.0000000     0.2128019     0.0000000     0.0970604    -0.1919947     0.0000000
        12     0.0000000     0.0000000     0.1905087     0.0000000     0.0000000     0.0000000     0.0000000     0.0000000
        13    -0.1964158    -0.1945525     0.0000000     0.2256864    -0.0820060    -0.0846156     0.0907543    -0.1396886
        14     0.3395389     0.3368240     0.0000000    -0.1783965    -0.2265570    -0.0485324     0.0351131    -0.0910406
        15     0.0000000     0.0000000    -0.1901020     0.0000000     0.0000000     0.0000000     0.0000000     0.0000000
        16    -0.1964158     0.1945525     0.0000000    -0.2256864    -0.0820060     0.0846156     0.0907543     0.1396886
        17    -0.3395389     0.3368240     0.0000000    -0.1783965     0.2265570    -0.0485324    -0.0351131    -0.0910406
        18     0.0000000     0.0000000     0.1901020     0.0000000     0.0000000     0.0000000     0.0000000     0.0000000
        19     0.1123000     0.1238096     0.0000000     0.0000000     0.0966324     0.0000000     0.0000000     0.0044218
        20     0.0000000     0.0000000     0.0000000     0.4286041     0.0000000     0.3962326     0.5443626     0.0000000
        21     0.0000000     0.0000000     0.3617337     0.0000000     0.0000000     0.0000000     0.0000000     0.0000000
        22    -0.0566820     0.0621973     0.0000000     0.2271030    -0.2968386    -0.3435509    -0.2374433     0.4069659
        23     0.0966239    -0.1069934     0.0000000     0.0342276    -0.2274493    -0.1981087    -0.1324956     0.2375340
        24     0.0000000     0.0000000    -0.3609554     0.0000000     0.0000000     0.0000000     0.0000000     0.0000000
        25    -0.0566820    -0.0621973     0.0000000    -0.2271030    -0.2968386     0.3435509    -0.2374433    -0.4069659
        26    -0.0966239    -0.1069934     0.0000000     0.0342276     0.2274493    -0.1981087     0.1324956     0.2375340
        27     0.0000000     0.0000000     0.3609554     0.0000000     0.0000000     0.0000000     0.0000000     0.0000000
        28     0.1123000    -0.1238096     0.0000000     0.0000000     0.0966324     0.0000000     0.0000000    -0.0044218
        29     0.0000000     0.0000000     0.0000000     0.4286041     0.0000000     0.3962326    -0.5443626     0.0000000
        30     0.0000000     0.0000000    -0.3617337     0.0000000     0.0000000     0.0000000     0.0000000     0.0000000
        31    -0.0566820    -0.0621973     0.0000000     0.2271030    -0.2968386    -0.3435509     0.2374433    -0.4069659
        32     0.0966239     0.1069934     0.0000000     0.0342276    -0.2274493    -0.1981087     0.1324956    -0.2375340
        33     0.0000000     0.0000000     0.3609554     0.0000000     0.0000000     0.0000000     0.0000000     0.0000000
        34    -0.0566820     0.0621973     0.0000000    -0.2271030    -0.2968386     0.3435509     0.2374433     0.4069659
        35    -0.0966239     0.1069934     0.0000000     0.0342276     0.2274493    -0.1981087    -0.1324956    -0.2375340
        36     0.0000000     0.0000000    -0.3609554     0.0000000     0.0000000     0.0000000     0.0000000     0.0000000
                  25            26            27            28            29            30            31            32
         1     0.0000000     0.0000000     0.2349167     0.0000000     0.0000000    -0.2229720    -0.1110809     0.0000000
         2     0.3966170    -0.1872156     0.0000000    -0.3661760     0.4998962     0.0000000     0.0000000     0.0068551
         3     0.0000000     0.0000000     0.0000000     0.0000000     0.0000000     0.0000000     0.0000000     0.0000000
         4    -0.3432489    -0.1621664    -0.2160103    -0.2604915    -0.1198648     0.4306754     0.0562274     0.0674996
         5    -0.1982479    -0.0935299    -0.2602252     0.0845912    -0.2922170     0.1197730    -0.0975868    -0.1239025
         6     0.0000000     0.0000000     0.0000000     0.0000000     0.0000000     0.0000000     0.0000000     0.0000000
         7     0.3432489    -0.1621664    -0.2160103     0.2604915    -0.1198648    -0.4306754     0.0562274     0.0674996
         8    -0.1982479     0.0935299     0.2602252     0.0845912     0.2922170     0.1197730     0.0975868     0.1239025
         9     0.0000000     0.0000000     0.0000000     0.0000000     0.0000000     0.0000000     0.0000000     0.0000000
        10     0.0000000     0.0000000     0.2349167     0.0000000     0.0000000     0.2229720    -0.1110809     0.0000000
        11     0.3966170     0.1872156     0.0000000    -0.3661760    -0.4998962     0.0000000     0.0000000    -0.0068551
        12     0.0000000     0.0000000     0.0000000     0.0000000     0.0000000     0.0000000     0.0000000     0.0000000
        13    -0.3432489     0.1621664    -0.2160103    -0.2604915     0.1198648    -0.4306754     0.0562274    -0.0674996
        14    -0.1982479     0.0935299    -0.2602252     0.0845912     0.2922170    -0.1197730    -0.0975868     0.1239025
        15     0.0000000     0.0000000     0.0000000     0.0000000     0.0000000     0.0000000     0.0000000     0.0000000
        16     0.3432489     0.1621664    -0.2160103     0.2604915     0.1198648     0.4306754     0.0562274    -0.0674996
        17    -0.1982479    -0.0935299     0.2602252     0.0845912    -0.2922170    -0.1197730     0.0975868    -0.1239025
        18     0.0000000     0.0000000     0.0000000     0.0000000     0.0000000     0.0000000     0.0000000     0.0000000
        19     0.0000000     0.0000000     0.0832732     0.0000000     0.0000000    -0.0723281     0.3892123     0.0000000
        20    -0.0975642     0.3624555     0.0000000     0.3699448    -0.1688142     0.0000000     0.0000000    -0.0018433
        21     0.0000000     0.0000000     0.0000000     0.0000000     0.0000000     0.0000000     0.0000000     0.0000000
        22     0.0843014     0.3143898     0.2985659     0.1244153     0.1043901    -0.1086169    -0.1969775    -0.2389061
        23     0.0485727     0.1813876     0.1241798     0.1550397    -0.0121301    -0.1044106     0.3414712     0.4159214
        24     0.0000000     0.0000000     0.0000000     0.0000000     0.0000000     0.0000000     0.0000000     0.0000000
        25    -0.0843014     0.3143898     0.2985659    -0.1244153     0.1043901     0.1086169    -0.1969775    -0.2389061
        26     0.0485727    -0.1813876    -0.1241798     0.1550397     0.0121301    -0.1044106    -0.3414712    -0.4159214
        27     0.0000000     0.0000000     0.0000000     0.0000000     0.0000000     0.0000000     0.0000000     0.0000000
        28     0.0000000     0.0000000     0.0832732     0.0000000     0.0000000     0.0723281     0.3892123     0.0000000
        29    -0.0975642    -0.3624555     0.0000000     0.3699448     0.1688142     0.0000000     0.0000000     0.0018433
        30     0.0000000     0.0000000     0.0000000     0.0000000     0.0000000     0.0000000     0.0000000     0.0000000
        31     0.0843014    -0.3143898     0.2985659     0.1244153    -0.1043901     0.1086169    -0.1969775     0.2389061
        32     0.0485727    -0.1813876     0.1241798     0.1550397     0.0121301     0.1044106     0.3414712    -0.4159214
        33     0.0000000     0.0000000     0.0000000     0.0000000     0.0000000     0.0000000     0.0000000     0.0000000
        34    -0.0843014    -0.3143898     0.2985659    -0.1244153    -0.1043901    -0.1086169    -0.1969775     0.2389061
        35     0.0485727     0.1813876    -0.1241798     0.1550397    -0.0121301     0.1044106    -0.3414712     0.4159214
        36     0.0000000     0.0000000     0.0000000     0.0000000     0.0000000     0.0000000     0.0000000     0.0000000
                  33            34            35            36
         1    -0.1621037     0.0000000    -0.1711422    -0.1247834
         2     0.0000000     0.0118958     0.0000000     0.0000000
         3     0.0000000     0.0000000     0.0000000     0.0000000
         4     0.0462280     0.0789317    -0.0333273    -0.0615712
         5    -0.0682203    -0.1248929     0.0783893     0.1067885
         6     0.0000000     0.0000000     0.0000000     0.0000000
         7    -0.0462280    -0.0789317    -0.0333273     0.0615712
         8    -0.0682203    -0.1248929    -0.0783893     0.1067885
         9     0.0000000     0.0000000     0.0000000     0.0000000
        10     0.1621037     0.0000000    -0.1711422     0.1247834
        11     0.0000000     0.0118958     0.0000000     0.0000000
        12     0.0000000     0.0000000     0.0000000     0.0000000
        13    -0.0462280     0.0789317    -0.0333273     0.0615712
        14     0.0682203    -0.1248929     0.0783893    -0.1067885
        15     0.0000000     0.0000000     0.0000000     0.0000000
        16     0.0462280    -0.0789317    -0.0333273    -0.0615712
        17     0.0682203    -0.1248929    -0.0783893    -0.1067885
        18     0.0000000     0.0000000     0.0000000     0.0000000
        19     0.5514516     0.0000000     0.5538291     0.3924312
        20     0.0000000    -0.0041043     0.0000000     0.0000000
        21     0.0000000     0.0000000     0.0000000     0.0000000
        22    -0.1409575    -0.2404394     0.1335243     0.1935460
        23     0.2411467     0.4126515    -0.2385529    -0.3354975
        24     0.0000000     0.0000000     0.0000000     0.0000000
        25     0.1409575     0.2404394     0.1335243    -0.1935460
        26     0.2411467     0.4126515     0.2385529    -0.3354975
        27     0.0000000     0.0000000     0.0000000     0.0000000
        28    -0.5514516     0.0000000     0.5538291    -0.3924312
        29     0.0000000    -0.0041043     0.0000000     0.0000000
        30     0.0000000     0.0000000     0.0000000     0.0000000
        31     0.1409575    -0.2404394     0.1335243    -0.1935460
        32    -0.2411467     0.4126515    -0.2385529     0.3354975
        33     0.0000000     0.0000000     0.0000000     0.0000000
        34    -0.1409575     0.2404394     0.1335243     0.1935460
        35    -0.2411467     0.4126515     0.2385529     0.3354975
        36     0.0000000     0.0000000     0.0000000     0.0000000

   Low Vibration      Wavenumber
        Nr             [1/cm] 
        1                0.00
        2                0.00
        3                0.00
        4                0.00
        5                0.00
        6                0.00

     Vibration        Wavenumber
        Nr             [1/cm] 
        1              413.88
        2              413.96
        3              617.42
        4              617.56
        5              690.90
        6              722.36
        7              865.50
        8              865.71
        9              986.10
       10              986.31
       11             1012.69
       12             1018.22
       13             1021.39
       14             1058.40
       15             1058.67
       16             1161.79
       17             1186.11
       18             1186.36
       19             1355.68
       20             1363.66
       21             1505.75
       22             1505.90
       23             1644.21
       24             1644.27
       25             3160.27
       26             3170.32
       27             3170.55
       28             3186.71
       29             3186.95
       30             3197.59

 FREQUENCIES * CALCULATION OF NORMAL MODES FOR KS-SCF


 Atomic Coordinates

  Nr  Atom  Charge       X              Y              Z

   1   C     6.00    2.643710963    0.000000003    0.000000000
   2   C     6.00    1.321854010   -2.289516191    0.000000000
   3   C     6.00   -1.321854003   -2.289516193    0.000000000
   4   C     6.00   -2.643710962    0.000000003    0.000000000
   5   C     6.00   -1.321854003    2.289516194    0.000000000
   6   C     6.00    1.321854010    2.289516191    0.000000000
   7   H     1.00    4.709224064    0.000000003    0.000000000
   8   H     1.00    2.354544848   -4.078384973    0.000000000
   9   H     1.00   -2.354544853   -4.078384973    0.000000000
  10   H     1.00   -4.709224069    0.000000004    0.000000000
  11   H     1.00   -2.354544860    4.078384965    0.000000000
  12   H     1.00    2.354544855    4.078384966    0.000000000

 Gradient norm at reference geometry: 0.42132D-04

 Normal Modes

                              1 A``       2 A``       3 A`        4 A`        5 A``
 Wavenumbers [cm-1]          413.88      413.96      617.42      617.56      690.90
 Intensities [km/mol]          0.00        0.00        0.00        0.00       74.31
 Intensities [relative]        0.00        0.00        0.00        0.00      100.00
           CX1              0.00000    -0.00000     0.14619     0.00000    -0.00000
           CY1              0.00000     0.00000    -0.00000     0.06224    -0.00000
           CZ1              0.00000     0.14017    -0.00000     0.00000    -0.03264
           CX2              0.00000    -0.00000     0.01011    -0.09025    -0.00000
           CY2             -0.00000     0.00000     0.09026     0.09411    -0.00000
           CZ2              0.12136    -0.07006     0.00000     0.00000    -0.03284
           CX3              0.00000    -0.00000    -0.01011    -0.09025     0.00000
           CY3             -0.00000     0.00000     0.09026    -0.09411     0.00000
           CZ3             -0.12136    -0.07006    -0.00000     0.00000    -0.03284
           CX4              0.00000    -0.00000    -0.14619    -0.00000    -0.00000
           CY4             -0.00000     0.00000     0.00000    -0.06224     0.00000
           CZ4             -0.00000     0.14017     0.00000    -0.00000    -0.03264
           CX5             -0.00000    -0.00000    -0.01011     0.09025    -0.00000
           CY5             -0.00000     0.00000    -0.09026    -0.09411     0.00000
           CZ5              0.12136    -0.07006     0.00000     0.00000    -0.03284
           CX6              0.00000    -0.00000     0.01011     0.09025     0.00000
           CY6             -0.00000     0.00000    -0.09026     0.09411     0.00000
           CZ6             -0.12136    -0.07006    -0.00000     0.00000    -0.03284
           HX7              0.00000    -0.00000     0.14543     0.00000     0.00000
           HY7              0.00000     0.00000    -0.00000    -0.09316    -0.00000
           HZ7              0.00000     0.31063     0.00000     0.00000     0.39049
           HX8              0.00000    -0.00000    -0.10627    -0.02272    -0.00000
           HY8              0.00000     0.00000     0.02267     0.13231    -0.00000
           HZ8              0.26933    -0.15566     0.00000     0.00000     0.39062
           HX9              0.00000    -0.00000     0.10627    -0.02272     0.00000
           HY9             -0.00000     0.00000     0.02267    -0.13231    -0.00000
           HZ9             -0.26933    -0.15566    -0.00000     0.00000     0.39062
           HX10             0.00000    -0.00000    -0.14543    -0.00000    -0.00000
           HY10            -0.00000    -0.00000     0.00000     0.09316    -0.00000
           HZ10            -0.00000     0.31063    -0.00000    -0.00000     0.39049
           HX11            -0.00000    -0.00000     0.10627     0.02272    -0.00000
           HY11            -0.00000    -0.00000    -0.02267    -0.13231     0.00000
           HZ11             0.26933    -0.15566     0.00000     0.00000     0.39062
           HX12            -0.00000    -0.00000    -0.10627     0.02272     0.00000
           HY12            -0.00000     0.00000    -0.02267     0.13231    -0.00000
           HZ12            -0.26933    -0.15566    -0.00000     0.00000     0.39062

                              6 A``       7 A``       8 A``       9 A``      10 A``
 Wavenumbers [cm-1]          722.36      865.50      865.71      986.10      986.31
 Intensities [km/mol]          0.00        0.00        0.00        0.00        0.00
 Intensities [relative]        0.00        0.00        0.00        0.00        0.00
           CX1              0.00000     0.00000    -0.00000    -0.00000     0.00000
           CY1             -0.00000    -0.00000     0.00000    -0.00000     0.00000
           CZ1              0.10428    -0.00000    -0.07626     0.00000    -0.09007
           CX2              0.00000     0.00000    -0.00000     0.00000     0.00000
           CY2             -0.00000    -0.00000    -0.00000    -0.00000    -0.00000
           CZ2             -0.10420    -0.06616    -0.03832    -0.07802     0.04501
           CX3              0.00000     0.00000    -0.00000     0.00000    -0.00000
           CY3              0.00000    -0.00000    -0.00000     0.00000    -0.00000
           CZ3              0.10420    -0.06616     0.03832     0.07802     0.04501
           CX4             -0.00000    -0.00000    -0.00000    -0.00000    -0.00000
           CY4             -0.00000     0.00000    -0.00000     0.00000     0.00000
           CZ4             -0.10428     0.00000     0.07626    -0.00000    -0.09007
           CX5              0.00000    -0.00000    -0.00000     0.00000     0.00000
           CY5             -0.00000     0.00000     0.00000     0.00000     0.00000
           CZ5              0.10420     0.06616     0.03832    -0.07802     0.04501
           CX6              0.00000    -0.00000     0.00000     0.00000     0.00000
           CY6              0.00000    -0.00000     0.00000     0.00000     0.00000
           CZ6             -0.10420     0.06616    -0.03832     0.07802     0.04501
           HX7             -0.00000     0.00000     0.00000    -0.00000     0.00000
           HY7             -0.00000    -0.00000    -0.00000    -0.00000     0.00000
           HZ7              0.18913    -0.00000     0.51081     0.00000     0.48403
           HX8              0.00000     0.00000    -0.00000     0.00000     0.00000
           HY8             -0.00000     0.00000    -0.00000    -0.00000    -0.00000
           HZ8             -0.18967     0.44258     0.25575     0.41892    -0.24169
           HX9             -0.00000     0.00000     0.00000    -0.00000    -0.00000
           HY9              0.00000    -0.00000    -0.00000     0.00000    -0.00000
           HZ9              0.18967     0.44258    -0.25575    -0.41892    -0.24169
           HX10             0.00000    -0.00000    -0.00000    -0.00000    -0.00000
           HY10            -0.00000    -0.00000    -0.00000     0.00000     0.00000
           HZ10            -0.18913     0.00000    -0.51081    -0.00000     0.48403
           HX11             0.00000    -0.00000    -0.00000     0.00000     0.00000
           HY11            -0.00000     0.00000     0.00000     0.00000     0.00000
           HZ11             0.18967    -0.44258    -0.25575     0.41892    -0.24169
           HX12            -0.00000     0.00000     0.00000    -0.00000     0.00000
           HY12             0.00000    -0.00000     0.00000     0.00000     0.00000
           HZ12            -0.18967    -0.44258     0.25575    -0.41892    -0.24169

                             11 A`       12 A`       13 A``      14 A`       15 A` 
 Wavenumbers [cm-1]         1012.69     1018.22     1021.39     1058.40     1058.67
 Intensities [km/mol]          0.00        0.00        0.00        4.45        4.41
 Intensities [relative]        0.00        0.00        0.00        5.99        5.93
           CX1              0.11344     0.11229    -0.00000    -0.00000     0.08887
           CY1              0.00000     0.00000     0.00000     0.06140     0.00000
           CZ1             -0.00000     0.00000    -0.05497     0.00000    -0.00000
           CX2             -0.05667     0.05614    -0.00000     0.06512    -0.02366
           CY2              0.09797    -0.09719     0.00000    -0.05148    -0.06537
           CZ2              0.00000     0.00000     0.05485    -0.00000     0.00000
           CX3             -0.05667    -0.05614     0.00000    -0.06512    -0.02366
           CY3             -0.09797    -0.09719     0.00000    -0.05148     0.06537
           CZ3             -0.00000    -0.00000    -0.05485    -0.00000    -0.00000
           CX4              0.11344    -0.11229    -0.00000    -0.00000     0.08887
           CY4             -0.00000     0.00000    -0.00000     0.06140    -0.00000
           CZ4              0.00000     0.00000     0.05497     0.00000     0.00000
           CX5             -0.05667    -0.05614     0.00000     0.06512    -0.02366
           CY5              0.09797     0.09719    -0.00000    -0.05148    -0.06537
           CZ5             -0.00000    -0.00000    -0.05485    -0.00000    -0.00000
           CX6             -0.05667     0.05614     0.00000    -0.06512    -0.02366
           CY6             -0.09797     0.09719    -0.00000    -0.05148     0.06537
           CZ6              0.00000     0.00000     0.05485    -0.00000     0.00000
           HX7              0.11186     0.12332    -0.00000    -0.00000     0.09625
           HY7              0.00000     0.00000     0.00000     0.42691     0.00000
           HZ7              0.00000     0.00000     0.36031    -0.00000     0.00000
           HX8             -0.05646     0.06195    -0.00000     0.22621    -0.29567
           HY8              0.09624    -0.10657     0.00000     0.03409    -0.22655
           HZ8             -0.00000    -0.00000    -0.35953     0.00000    -0.00000
           HX9             -0.05646    -0.06195     0.00000    -0.22621    -0.29567
           HY9             -0.09624    -0.10657     0.00000     0.03409     0.22655
           HZ9              0.00000     0.00000     0.35953     0.00000     0.00000
           HX10             0.11186    -0.12332    -0.00000    -0.00000     0.09625
           HY10            -0.00000     0.00000    -0.00000     0.42691    -0.00000
           HZ10            -0.00000    -0.00000    -0.36031    -0.00000    -0.00000
           HX11            -0.05646    -0.06195     0.00000     0.22621    -0.29567
           HY11             0.09624     0.10657    -0.00000     0.03409    -0.22655
           HZ11             0.00000     0.00000     0.35953     0.00000     0.00000
           HX12            -0.05646     0.06195     0.00000    -0.22621    -0.29567
           HY12            -0.09624     0.10657    -0.00000     0.03409     0.22655
           HZ12            -0.00000    -0.00000    -0.35953     0.00000    -0.00000

                             16 A`       17 A`       18 A`       19 A`       20 A` 
 Wavenumbers [cm-1]         1161.79     1186.11     1186.36     1355.68     1363.66
 Intensities [km/mol]          0.00        0.00        0.00        0.00        0.00
 Intensities [relative]        0.00        0.00        0.00        0.00        0.00
           CX1              0.00000     0.00000     0.00492     0.00000     0.00000
           CY1              0.02801     0.05540    -0.00000     0.11444    -0.05402
           CZ1             -0.00000    -0.00000    -0.00000     0.00000    -0.00000
           CX2             -0.02442    -0.02619     0.04031    -0.09904    -0.04679
           CY2             -0.01400    -0.01013     0.02627    -0.05720    -0.02699
           CZ2             -0.00000    -0.00000    -0.00000    -0.00000     0.00000
           CX3              0.02442    -0.02619    -0.04031     0.09904    -0.04679
           CY3             -0.01400     0.01013     0.02627    -0.05720     0.02699
           CZ3              0.00000    -0.00000     0.00000     0.00000     0.00000
           CX4             -0.00000    -0.00000    -0.00492    -0.00000     0.00000
           CY4              0.02801    -0.05540     0.00000     0.11444     0.05402
           CZ4             -0.00000     0.00000     0.00000     0.00000     0.00000
           CX5             -0.02442     0.02619    -0.04031    -0.09904     0.04679
           CY5             -0.01400     0.01013    -0.02627    -0.05720     0.02699
           CZ5              0.00000    -0.00000    -0.00000    -0.00000     0.00000
           CX6              0.02442     0.02619     0.04031     0.09904     0.04679
           CY6             -0.01400    -0.01013    -0.02627    -0.05720    -0.02699
           CZ6              0.00000    -0.00000     0.00000    -0.00000     0.00000
           HX7              0.00000     0.00000     0.00440    -0.00000     0.00000
           HY7              0.39467     0.54221    -0.00000    -0.09718     0.36103
           HZ7              0.00000    -0.00000     0.00000     0.00000     0.00000
           HX8             -0.34220    -0.23651     0.40536     0.08397     0.31315
           HY8             -0.19733    -0.13197     0.23660     0.04838     0.18067
           HZ8              0.00000     0.00000     0.00000    -0.00000    -0.00000
           HX9              0.34220    -0.23651    -0.40536    -0.08397     0.31315
           HY9             -0.19733     0.13197     0.23660     0.04838    -0.18067
           HZ9             -0.00000    -0.00000    -0.00000    -0.00000    -0.00000
           HX10             0.00000    -0.00000    -0.00440     0.00000     0.00000
           HY10             0.39467    -0.54221     0.00000    -0.09718    -0.36103
           HZ10             0.00000    -0.00000    -0.00000     0.00000     0.00000
           HX11            -0.34220     0.23651    -0.40536     0.08397    -0.31315
           HY11            -0.19733     0.13197    -0.23660     0.04838    -0.18067
           HZ11            -0.00000     0.00000     0.00000    -0.00000    -0.00000
           HX12             0.34220     0.23651     0.40536    -0.08397    -0.31315
           HY12            -0.19733    -0.13197    -0.23660     0.04838     0.18067
           HZ12             0.00000     0.00000    -0.00000     0.00000     0.00000

                             21 A`       22 A`       23 A`       24 A`       25 A` 
 Wavenumbers [cm-1]         1505.75     1505.90     1644.21     1644.27     3160.27
 Intensities [km/mol]          6.71        6.78        0.00        0.00        0.00
 Intensities [relative]        9.03        9.12        0.00        0.00        0.00
           CX1              0.06778    -0.00000     0.00000    -0.06434    -0.03205
           CY1              0.00000    -0.10566     0.14424     0.00000     0.00000
           CZ1             -0.00000    -0.00000     0.00000     0.00000     0.00000
           CX2             -0.06233    -0.07516    -0.03459     0.12427     0.01622
           CY2             -0.07509     0.02441    -0.08432     0.03456    -0.02816
           CZ2             -0.00000    -0.00000     0.00000    -0.00000    -0.00000
           CX3             -0.06233     0.07516    -0.03459    -0.12427     0.01622
           CY3              0.07509     0.02441     0.08432     0.03456     0.02816
           CZ3              0.00000    -0.00000    -0.00000     0.00000     0.00000
           CX4              0.06778    -0.00000     0.00000     0.06434    -0.03205
           CY4             -0.00000    -0.10566    -0.14424    -0.00000    -0.00000
           CZ4             -0.00000     0.00000     0.00000    -0.00000    -0.00000
           CX5             -0.06233    -0.07516     0.03459    -0.12427     0.01622
           CY5             -0.07509     0.02441     0.08432    -0.03456    -0.02816
           CZ5              0.00000     0.00000     0.00000     0.00000     0.00000
           CX6             -0.06233     0.07516     0.03459     0.12427     0.01622
           CY6              0.07509     0.02441    -0.08432    -0.03456     0.02816
           CZ6              0.00000    -0.00000    -0.00000    -0.00000    -0.00000
           HX7              0.08294     0.00000     0.00000    -0.07204     0.38768
           HY7              0.00000     0.36848    -0.16815     0.00000     0.00000
           HZ7              0.00000    -0.00000    -0.00000    -0.00000    -0.00000
           HX8              0.29739     0.12392     0.10398    -0.10819    -0.19620
           HY8              0.12369     0.15443    -0.01208    -0.10400     0.34012
           HZ8              0.00000    -0.00000     0.00000     0.00000     0.00000
           HX9              0.29739    -0.12392     0.10398     0.10819    -0.19620
           HY9             -0.12369     0.15443     0.01208    -0.10400    -0.34012
           HZ9             -0.00000    -0.00000     0.00000     0.00000    -0.00000
           HX10             0.08294    -0.00000     0.00000     0.07204     0.38768
           HY10            -0.00000     0.36848     0.16815    -0.00000    -0.00000
           HZ10             0.00000     0.00000    -0.00000     0.00000    -0.00000
           HX11             0.29739     0.12392    -0.10398     0.10819    -0.19620
           HY11             0.12369     0.15443     0.01208     0.10400     0.34012
           HZ11            -0.00000    -0.00000    -0.00000     0.00000     0.00000
           HX12             0.29739    -0.12392    -0.10398    -0.10819    -0.19620
           HY12            -0.12369     0.15443    -0.01208     0.10400    -0.34012
           HZ12            -0.00000    -0.00000     0.00000     0.00000    -0.00000

                             26 A`       27 A`       28 A`       29 A`       30 A` 
 Wavenumbers [cm-1]         3170.32     3170.55     3186.71     3186.95     3197.59
 Intensities [km/mol]          0.00        0.00       41.29       41.09        0.00
 Intensities [relative]        0.00        0.00       55.56       55.29        0.00
           CX1             -0.00000    -0.04677     0.00000    -0.04938    -0.03601
           CY1              0.00198    -0.00000     0.00343    -0.00000    -0.00000
           CZ1              0.00000     0.00000    -0.00000    -0.00000    -0.00000
           CX2              0.01948     0.01334     0.02278    -0.00962    -0.01777
           CY2             -0.03575    -0.01968    -0.03604     0.02262     0.03081
           CZ2              0.00000     0.00000    -0.00000    -0.00000     0.00000
           CX3              0.01948    -0.01334    -0.02278    -0.00962     0.01777
           CY3              0.03575    -0.01968    -0.03604    -0.02262     0.03081
           CZ3             -0.00000    -0.00000     0.00000     0.00000    -0.00000
           CX4              0.00000     0.04677     0.00000    -0.04938     0.03601
           CY4             -0.00198     0.00000     0.00343     0.00000     0.00000
           CZ4              0.00000    -0.00000     0.00000    -0.00000     0.00000
           CX5             -0.01948    -0.01334     0.02278    -0.00962     0.01777
           CY5              0.03575     0.01968    -0.03604     0.02262    -0.03081
           CZ5              0.00000     0.00000    -0.00000     0.00000    -0.00000
           CX6             -0.01948     0.01334    -0.02278    -0.00962    -0.01777
           CY6             -0.03575     0.01968    -0.03604    -0.02262    -0.03081
           CZ6              0.00000    -0.00000     0.00000    -0.00000     0.00000
           HX7              0.00000     0.54928    -0.00000     0.55164     0.39088
           HY7             -0.00184    -0.00000    -0.00409    -0.00000    -0.00000
           HZ7             -0.00000    -0.00000    -0.00000    -0.00000     0.00000
           HX8             -0.23796    -0.14040    -0.23949     0.13300     0.19278
           HY8              0.41428     0.24019     0.41102    -0.23761    -0.33417
           HZ8              0.00000     0.00000    -0.00000     0.00000    -0.00000
           HX9             -0.23796     0.14040     0.23949     0.13300    -0.19278
           HY9             -0.41428     0.24019     0.41102     0.23761    -0.33417
           HZ9              0.00000     0.00000    -0.00000     0.00000    -0.00000
           HX10            -0.00000    -0.54928    -0.00000     0.55164    -0.39088
           HY10             0.00184     0.00000    -0.00409     0.00000     0.00000
           HZ10            -0.00000     0.00000    -0.00000     0.00000     0.00000
           HX11             0.23796     0.14040    -0.23949     0.13300    -0.19278
           HY11            -0.41428    -0.24019     0.41102    -0.23761     0.33417
           HZ11            -0.00000     0.00000     0.00000     0.00000    -0.00000
           HX12             0.23796    -0.14040     0.23949     0.13300     0.19278
           HY12             0.41428    -0.24019     0.41102     0.23761     0.33417
           HZ12             0.00000    -0.00000     0.00000    -0.00000    -0.00000


 Normal Modes of low/zero frequencies

                                  1           2           3           4           5
 Wavenumbers [cm-1]            0.00        0.00        0.00        0.00        0.00
 Intensities [km/mol]          0.00        0.00        0.00        0.00        0.00
 Intensities [relative]        0.00        0.00        0.00        0.00        0.00
           CX1             -0.00000     0.11315    -0.00000    -0.00000    -0.00000
           CY1              0.14978    -0.00000     0.00785    -0.00217    -0.02997
           CZ1              0.01398     0.00000     0.10181     0.00956     0.13926
           CX2              0.04492     0.11315     0.02872    -0.00206    -0.05114
           CY2              0.12384    -0.00000    -0.00873    -0.00098    -0.00045
           CZ2              0.00881     0.00000     0.17029     0.01217     0.06332
           CX3              0.04492     0.11315     0.02872    -0.00206    -0.05114
           CY3              0.07197     0.00000    -0.04189     0.00140     0.05860
           CZ3              0.00033     0.00000     0.12370     0.09199    -0.03516
           CX4             -0.00000     0.11315    -0.00000     0.00000     0.00000
           CY4              0.04603     0.00000    -0.05847     0.00258     0.08812
           CZ4             -0.00297    -0.00000     0.00863     0.16921    -0.05769
           CX5             -0.04492     0.11315    -0.02872     0.00206     0.05114
           CY5              0.07197     0.00000    -0.04189     0.00140     0.05860
           CZ5              0.00219     0.00000    -0.05985     0.16660     0.01826
           CX6             -0.04492     0.11315    -0.02872     0.00206     0.05114
           CY6              0.12384    -0.00000    -0.00873    -0.00098    -0.00045
           CZ6              0.01067     0.00000    -0.01326     0.08677     0.11673
           HX7              0.00000     0.11315     0.00000    -0.00000    -0.00000
           HY7              0.19031    -0.00000     0.03376    -0.00402    -0.07610
           HZ7              0.02060     0.00000     0.13821    -0.05281     0.21620
           HX8              0.08002     0.11315     0.05115    -0.00367    -0.09109
           HY8              0.14410    -0.00000     0.00423    -0.00191    -0.02351
           HZ8              0.01140     0.00000     0.26019    -0.04816     0.08092
           HX9              0.08002     0.11315     0.05115    -0.00367    -0.09109
           HY9              0.05171     0.00000    -0.05484     0.00232     0.08167
           HZ9             -0.00370    -0.00000     0.17721     0.09403    -0.09449
           HX10            -0.00000     0.11315    -0.00000     0.00000     0.00000
           HY10             0.00551     0.00000    -0.08437     0.00444     0.13426
           HZ10            -0.00960    -0.00000    -0.02776     0.23158    -0.13462
           HX11            -0.08002     0.11315    -0.05115     0.00367     0.09109
           HY11             0.05171     0.00000    -0.05484     0.00232     0.08167
           HZ11            -0.00039    -0.00000    -0.14975     0.22693     0.00066
           HX12            -0.08002     0.11315    -0.05115     0.00367     0.09109
           HY12             0.14410    -0.00000     0.00423    -0.00191    -0.02351
           HZ12             0.01471     0.00000    -0.06677     0.08474     0.17606

                                  6
 Wavenumbers [cm-1]            0.00
 Intensities [km/mol]          0.00
 Intensities [relative]        0.00
           CX1             -0.00000
           CY1              0.01903
           CZ1              0.06836
           CX2              0.05251
           CY2             -0.01128
           CZ2             -0.03853
           CX3              0.05251
           CY3             -0.07191
           CZ3             -0.09858
           CX4             -0.00000
           CY4             -0.10223
           CZ4             -0.05173
           CX5             -0.05251
           CY5             -0.07191
           CZ5              0.05517
           CX6             -0.05251
           CY6             -0.01128
           CZ6              0.11521
           HX7              0.00000
           HY7              0.06640
           HZ7              0.11527
           HX8              0.09353
           HY8              0.01240
           HZ8             -0.07514
           HX9              0.09353
           HY9             -0.09560
           HZ9             -0.18209
           HX10            -0.00000
           HY10            -0.14960
           HZ10            -0.09864
           HX11            -0.09353
           HY11            -0.09560
           HZ11             0.09177
           HX12            -0.09353
           HY12             0.01240
           HZ12             0.19872


 Frequencies dumped to record   5400.2

 Zero point energy:  0.10018289 [H]    21987.60 [1/CM]      263.03 [KJ/MOL]

 Recomputing wavefunction at initial geometry


 **********************************************************************************************************************************
 DATASETS  * FILE   NREC   LENGTH (MB)   RECORD NAMES
              1      19       30.64       500      610      700      900      950      970     1000      129      960     1100   
                                          VAR    BASINP    GEOM    SYMINP    ZMAT    AOBASIS   BASIS     P2S    ABASIS      S 
                                         1400     1410     1200     1210     1080     1600     1650     1700     1800   
                                           T        V       H0       H01     AOSYM     SMH    MOLCAS    OPER     GRID   

              2       9        3.91       700     1000      520     1800     2100      701     5300     5450     5400   
                                         GEOM     BASIS   MCVARS    GRID      RKS     GEOM     HESS     NMOD     FREQ   

 PROGRAMS   *        TOTAL      FREQ      OPTG    KS-SCF       INT
 CPU TIMES  *       126.09    101.94     20.82      1.90      1.35
 REAL TIME  *       140.86 SEC
 DISK USED  *        38.86 MB (local),      324.64 MB (total)
 SF USED    *         0.05 MB
 GA USED    *         1.75 MB       (max)       1.71 MB       (current)
 **********************************************************************************************************************************

 B3LYP/cc-pVDZ energy=   -232.108648456800

    OPTG(KS-SCF)          KS-SCF
   -232.10864846   -232.10566585
 **********************************************************************************************************************************
 Molpro calculation terminated
