
 Primary working directories    : /tmp/satyam/molpro.9htxBCrO46
 Secondary working directories  : /tmp/satyam/molpro.9htxBCrO46
 Wavefunction directory         : /home/satyam/wfu/
 Main file repository           : /tmp/satyam/molpro.9htxBCrO46/

 id        : iacsdirector

 Nodes     nprocs
 satyam       2

 Using customized tuning parameters: mindgm=1; mindgv=20; mindgc=4; mindgr=1; noblas=0; minvec=7
 default implementation of scratch files=sf  


 Variables initialized (930), CPU time= 0.00 sec
 
 memory,50,m
 
 set,charge=0
 basis=cc-pVDZ
 
 symmetry,nosym
 
 geometry=geom.xyz
 Including file /home/satyam/Downloads/adt-new/ADT-Program/test_runs/optimization/MOLPRO/C6H3F3/geom.xyz
 hf
 {mp2}
 optg;
 {frequencies;print,hessian}
 
 Commands  initialized (760), CPU time= 0.01 sec, 617 directives.
 Default parameters read. Elapsed time= 0.04 sec

 Checking input...
 Passed
1


                                         ***  PROGRAM SYSTEM MOLPRO  ***
                                       Copyright, TTI GmbH Stuttgart, 2015
                                    Version 2018.2 linked Nov 10 2018 21:55:55


 **********************************************************************************************************************************
 LABEL *                                                                                 
  64 bit mpp version                                                                     DATE: 23-Feb-20          TIME: 16:10:59  
 **********************************************************************************************************************************

 SHA1:             5ea806b172b3d20b18658228ad0b1c212d33fc17
 **********************************************************************************************************************************
 SETTING CHARGE         =     0.00000000D+00                                  

 Variable memory set to   50000000 words,  buffer space 

 SETTING BASIS          =    CC-PVDZ
 ZSYMEL=NOSYM


Geometry recognized as XYZ



 Recomputing integrals since basis changed


 Using spherical harmonics

 Library entry C      S cc-pVDZ              selected for orbital group  1
 Library entry C      P cc-pVDZ              selected for orbital group  1
 Library entry C      D cc-pVDZ              selected for orbital group  1
 Library entry H      S cc-pVDZ              selected for orbital group  2
 Library entry H      P cc-pVDZ              selected for orbital group  2
 Library entry F      S cc-pVDZ              selected for orbital group  3
 Library entry F      P cc-pVDZ              selected for orbital group  3
 Library entry F      D cc-pVDZ              selected for orbital group  3


 PROGRAM * SEWARD (Integral evaluation for generally contracted gaussian basis sets)     Author: Roland Lindh, 1990

 Geometry written to block  1 of record 700


 Point group  C1  



 ATOMIC COORDINATES

 NR  ATOM    CHARGE       X              Y              Z

   1  C       6.00    1.330371016    2.304270411    0.000000000
   2  C       6.00    2.576193576    0.000000135    0.000000000
   3  C       6.00    1.330371162   -2.304270411    0.000000000
   4  C       6.00   -1.288096782   -2.231049311    0.000000000
   5  C       6.00   -2.660741971   -0.000000038    0.000000000
   6  C       6.00   -1.288096871    2.231049203    0.000000000
   7  H       1.00    2.349946204    4.070226094    0.000000000
   8  H       1.00    2.349945977   -4.070226289    0.000000000
   9  H       1.00   -4.699892042    0.000000089    0.000000000
  10  F       9.00    5.116060308    0.000000181    0.000000000
  11  F       9.00   -2.558030335   -4.430638375    0.000000000
  12  F       9.00   -2.558030241    4.430638311    0.000000000

 Bond lengths in Bohr (Angstrom)

  1- 2  2.619491430   1- 6  2.619491444   1- 7  2.039150077   2- 3  2.619491599   2-10  2.539866732
       ( 1.386175169)       ( 1.386175176)       ( 1.079071750)       ( 1.386175259)       ( 1.344039593)

  3- 4  2.619491497   3- 8  2.039150059   4- 5  2.619491491   4-11  2.539866783   5- 6  2.619491417
       ( 1.386175205)       ( 1.079071741)       ( 1.386175201)       ( 1.344039621)       ( 1.386175162)

  5- 9  2.039150072   6-12  2.539866730
       ( 1.079071748)       ( 1.344039592)

 Bond angles

  1- 2- 3  123.20353549   1- 2-10  118.39823405   1- 6- 5  123.20352570   1- 6-12  118.39823398

  2-1-6  116.79646892   2-1-7  121.60176010   2-3-4  116.79646570   2-3-8  121.60177753

  3- 2-10  118.39823046   3- 4- 5  123.20352458   3- 4-11  118.39824044   4- 3- 8  121.60175677

  4- 5- 6  116.79647961   4- 5- 9  121.60176439   5- 4-11  118.39823498   5- 6-12  118.39824031

  6-1-7  121.60177098   6-5-9  121.60175600

 NUCLEAR CHARGE:                   66
 NUMBER OF PRIMITIVE AOS:         264
 NUMBER OF SYMMETRY AOS:          255
 NUMBER OF CONTRACTIONS:          141   (  141A   )
 NUMBER OF CORE ORBITALS:           9   (    9A   )
 NUMBER OF VALENCE ORBITALS:       39   (   39A   )


 NUCLEAR REPULSION ENERGY  423.44121447

 EXTRA SYMMETRY OF AOS IN SYMMETRY 1:   1 1 1 1 1 2 1 1 2 1   1 2 1 2 1 1 1 1 1 2   1 1 2 1 1 2 1 2 1 1   1 1 1 2 1 1 2 1 1 2
                                        1 2 1 1 1 1 1 2 1 1   2 1 1 2 1 2 1 1 1 1   1 2 1 1 2 1 1 2 1 2   1 1 1 1 1 2 1 1 2 1
                                        1 2 1 2 1 1 1 1 2 1   1 1 1 2 1 1 1 1 2 1   1 1 1 1 2 1 1 2 1 1   2 1 2 1 1 1 1 1 2 1
                                        1 2 1 1 2 1 2 1 1 1   1 1 2 1 1 2 1 1 2 1   2

 Eigenvalues of metric

         1 0.418E-03 0.114E-02 0.163E-02 0.163E-02 0.303E-02 0.303E-02 0.123E-01 0.123E-01


 Contracted 2-electron integrals neglected if value below      1.0D-11
 AO integral compression algorithm  1   Integral accuracy      1.0D-11

     104.333 MB (compressed) written to integral file ( 25.3%)

     Node minimum: 51.380 MB, node maximum: 52.953 MB


 NUMBER OF SORTED TWO-ELECTRON INTEGRALS:   25055030.     BUFFER LENGTH:  32768
 NUMBER OF SEGMENTS:   2  SEGMENT LENGTH:   15996000      RECORD LENGTH: 524288

 Memory used in sort:      16.55 MW

 SORT1 READ    51859450. AND WROTE    11383844. INTEGRALS IN     34 RECORDS. CPU TIME:     0.65 SEC, REAL TIME:     1.02 SEC
 SORT2 READ    22765843. AND WROTE    50115066. INTEGRALS IN    404 RECORDS. CPU TIME:     0.28 SEC, REAL TIME:     0.39 SEC

 Node minimum:    25055030.  Node maximum:    25060036. integrals

 OPERATOR DM      FOR CENTER  0  COORDINATES:    0.000000    0.000000    0.000000


 **********************************************************************************************************************************
 DATASETS  * FILE   NREC   LENGTH (MB)   RECORD NAMES
              1      18       30.91       500      610      700      900      950      970     1000      129      960     1100   
                                          VAR    BASINP    GEOM    SYMINP    ZMAT    AOBASIS   BASIS     P2S    ABASIS      S 
                                         1400     1410     1200     1210     1080     1600     1650     1700   
                                           T        V       H0       H01     AOSYM     SMH    MOLCAS    OPER   

 PROGRAMS   *        TOTAL       INT
 CPU TIMES  *         2.42      2.33
 REAL TIME  *         2.99 SEC
 DISK USED  *        31.40 MB (local),      438.30 MB (total)
 GA USED    *         0.00 MB       (max)       0.00 MB       (current)
 **********************************************************************************************************************************


 PROGRAM * RHF-SCF (CLOSED SHELL)       Authors: W. Meyer, H.-J. Werner


 NUMBER OF ELECTRONS:      33+   33-    SPACE SYMMETRY=1    SPIN SYMMETRY: Singlet 
 CONVERGENCE THRESHOLDS:    1.00E-06 (Density)    1.00E-07 (Energy)
 MAX. NUMBER OF ITERATIONS:       60
 INTERPOLATION TYPE:            DIIS
 INTERPOLATION STEPS:              2 (START)      1 (STEP)
 LEVEL SHIFTS:                  0.00 (CLOSED)  0.00 (OPEN) 



 Orbital guess generated from atomic densities. Full valence occupancy:   48

 Molecular orbital dump at record        2100.2

 Initial occupancy:  33

 ITERATION    DDIFF          GRAD             ENERGY        2-EL.EN.            DIPOLE MOMENTS         DIIS   ORB.
    1      0.000D+00      0.000D+00      -527.17984881   1232.243921    0.00000    0.00000   -0.00000    0    start
    2      0.000D+00      0.545D-02      -527.27096951   1232.638203    0.00000    0.00000    0.00000    1    diag
    3      0.134D-01      0.237D-02      -527.28627960   1233.031850    0.00000    0.00000   -0.00000    2    diag
    4      0.396D-02      0.599D-03      -527.28783912   1232.903467    0.00000    0.00000    0.00000    3    diag
    5      0.138D-02      0.190D-03      -527.28799879   1232.973483    0.00000    0.00000   -0.00000    4    diag
    6      0.385D-03      0.436D-04      -527.28800902   1232.969707    0.00000    0.00000    0.00000    5    diag
    7      0.106D-03      0.119D-04      -527.28801070   1232.977845    0.00000    0.00000   -0.00000    6    diag
    8      0.379D-04      0.441D-05      -527.28801095   1232.976979    0.00000    0.00000    0.00000    7    diag
    9      0.162D-04      0.182D-05      -527.28801100   1232.979037    0.00000    0.00000   -0.00000    8    diag
   10      0.692D-05      0.869D-06      -527.28801102   1232.979092    0.00000    0.00000    0.00000    9    orth
   11      0.491D-05      0.166D-06      -527.28801102   1232.979213    0.00000    0.00000   -0.00000    9    diag
   12      0.974D-06      0.296D-07      -527.28801102   1232.979213    0.00000    0.00000    0.00000    0    orth

 Final occupancy:  33

 !RHF STATE  1.1 Energy              -527.288011015688
 Nuclear energy                       423.44121447
 One-electron energy                -1567.21883195
 Two-electron energy                  616.48960646
 Virial quotient                       -1.00039727
 !RHF STATE  1.1 Dipole moment          0.00000007     0.00000004     0.00000000
 Dipole moment /Debye                   0.00000018     0.00000009     0.00000000

 Orbital energies:

         1.1          2.1          3.1          4.1          5.1          6.1          7.1          8.1          9.1         10.1
    -26.332709   -26.332709   -26.332706   -11.366430   -11.366423   -11.366423   -11.265726   -11.265726   -11.265691    -1.650906

        11.1         12.1         13.1         14.1         15.1         16.1         17.1         18.1         19.1         20.1
     -1.649976    -1.649976    -1.198427    -1.058889    -1.058889    -0.890441    -0.890441    -0.799361    -0.775714    -0.719030

        21.1         22.1         23.1         24.1         25.1         26.1         27.1         28.1         29.1         30.1
     -0.718664    -0.718664    -0.716469    -0.706588    -0.706588    -0.663646    -0.663646    -0.584950    -0.573725    -0.573725

        31.1         32.1         33.1         34.1         35.1
     -0.523004    -0.366774    -0.366774     0.117191     0.117191


 HOMO     33.1    -0.366774 =      -9.9804eV
 LUMO     34.1     0.117191 =       3.1889eV
 LUMO-HOMO         0.483965 =      13.1694eV


 **********************************************************************************************************************************
 DATASETS  * FILE   NREC   LENGTH (MB)   RECORD NAMES
              1      18       30.91       500      610      700      900      950      970     1000      129      960     1100   
                                          VAR    BASINP    GEOM    SYMINP    ZMAT    AOBASIS   BASIS     P2S    ABASIS      S 
                                         1400     1410     1200     1210     1080     1600     1650     1700   
                                           T        V       H0       H01     AOSYM     SMH    MOLCAS    OPER   

              2       4        3.36       700     1000      520     2100   
                                         GEOM     BASIS   MCVARS     RHF  

 PROGRAMS   *        TOTAL    HF-SCF       INT
 CPU TIMES  *         4.25      1.83      2.33
 REAL TIME  *         4.96 SEC
 DISK USED  *        35.77 MB (local),      447.03 MB (total)
 SF USED    *         0.08 MB
 GA USED    *         0.00 MB       (max)       0.00 MB       (current)
 **********************************************************************************************************************************


 PROGRAM * MP2 (Closed-shell)     Authors: C. Hampel, H.-J. Werner, 1991, M. Deegan, P.J. Knowles, 1992


 Convergence thresholds:  THRVAR = 1.00D-12  THRDEN = 1.00D-08

 Number of core orbitals:           9 (   9 )
 Number of closed-shell orbitals:  24 (  24 )
 Number of external orbitals:     108 ( 108 )

 Molecular orbitals read from record     2100.2  Type=RHF/CANONICAL (state 1.1)

 Number of N-1 electron functions:              24
 Number of N-2 electron functions:             300
 Number of singly external CSFs:              2592
 Number of doubly external CSFs:           3360528
 Total number of CSFs:                     3363121

 Length of J-op  integral file:               0.00 MB
 Length of K-op  integral file:               1.37 MB

 Integral transformation finished. Total CPU:   1.80 sec, npass=  1  Memory used:  10.00 MW

 Memory needed for MP2:                      0.09 MW

 SCS-MP2 correlation energy:           -1.263888017836   (PS=  1.200000  PT=  0.333333)
 SCS-MP2 total energy:               -528.551899033524


  Reference energy                   -527.288011015689
  MP2 singlet pair energy              -0.770948244107
  MP2 triplet pair energy              -0.544419843602
  MP2 correlation energy               -1.315368087709

 !MP2 total energy                   -528.603379103397

 KEXT needed  1 integral passes. Memory used:  12.33 MW  CPU time:      8.74 sec


 Starting Coupled-perturbed Hartree-Fock, convergence threshold= 1.0D-06

 ITER   MIC  DIIS      VAR         VARC       CPU
   1     0     1    0.86D-01    0.28D-02     0.13
   2     7     2    0.45D-03    0.37D-03     0.34
   3     3     3    0.38D-04    0.99D-05     0.49
   4     4     4    0.13D-05    0.35D-06     0.68
   5     1     5    0.25D-06    0.62D-08     0.82

 CPHF convergence reached in  5 macroiterations and   15 microiterations.   Accuracy: 2.4697D-07

 CPHF solution written to record  4100.2

 Dipole moments (unrelaxed):            0.00000007     0.00000004     0.00000000
 Orbital relaxation contribution:      -0.00000001    -0.00000000     0.00000000
 !MP2 STATE  1.1 Dipole moment          0.00000006     0.00000003     0.00000000
 Dipole moment /Debye                   0.00000014     0.00000009     0.00000000

 CPU-time for density and lagrangian:                  0.40 sec
 CPU-time for coupled-perturbed hartree-fock:          0.82 sec

 MP2 Gradient info saved on record         5200.1


 **********************************************************************************************************************************
 DATASETS  * FILE   NREC   LENGTH (MB)   RECORD NAMES
              1      20      131.72       500      610      700      900      950      970     1000      129      960     1100   
                                          VAR    BASINP    GEOM    SYMINP    ZMAT    AOBASIS   BASIS     P2S    ABASIS      S 
                                         1400     1410     1200     1210     1080     1600     1650     1700     1380     5200   
                                           T        V       H0       H01     AOSYM     SMH    MOLCAS    OPER     JKOP      MP2  

              2       5        4.08       700     1000      520     2100     4100   
                                         GEOM     BASIS   MCVARS     RHF     CPHF   

 PROGRAMS   *        TOTAL       MP2    HF-SCF       INT
 CPU TIMES  *        16.45     12.20      1.83      2.33
 REAL TIME  *        18.60 SEC
 DISK USED  *       136.11 MB (local),      647.72 MB (total)
 SF USED    *       265.48 MB
 GA USED    *         0.00 MB       (max)       0.00 MB       (current)
 **********************************************************************************************************************************


 PROGRAM * OPT (Geometry optimization)     Authors: F. Eckert and H.-J. Werner


 BFGS update of hessian

 *** Long output written to logfile /home/satyam/Downloads/adt-new/ADT-Program/test_runs/optimization/MOLPRO/C6H3F3/optg_mol.log ***


 Geometry optimization using default procedure for command MP2

 Geometry written to block  1 of record 700

 Making model hessian for cartesian coordinates

 Entering Rational Function Geometry Optimization

 ITER.   ENERGY(OLD)    ENERGY(NEW)      DE          GRADMAX     GRADNORM    GRADRMS     STEPMAX     STEPLEN     STEPRMS   CPU-time
   1  -528.60337910  -528.60452783    -0.00114873  0.02029213  0.02646350  0.00088212  0.07233677  0.07984564  0.02304945     21.58
   2  -528.60452783  -528.60460595    -0.00007812  0.00486791  0.00693727  0.00023124  0.02305604  0.02613969  0.00754588     42.45
   3  -528.60460595  -528.60460627    -0.00000032  0.00072393  0.00073969  0.00002466  0.00065748  0.00095869  0.00027675     63.87
   4  -528.60460627  -528.60460632    -0.00000005  0.00027771  0.00028059  0.00000935  0.00023513  0.00025752  0.00007434     84.90

 END OF GEOMETRY OPTIMIZATION.

 Current geometry (xyz format, in Angstrom)

   12
 MP2/CC-PVDZ  ENERGY=-528.60460632
 C          0.7080461568        1.2263719256        0.0000000000
 C          1.3789929850       -0.0000000000        0.0000000000
 C          0.7080461573       -1.2263719277        0.0000000000
 C         -0.6894964976       -1.1942429707        0.0000000000
 C         -1.4160923091        0.0000000004        0.0000000000
 C         -0.6894964986        1.1942429709        0.0000000000
 H          1.2538137540        2.1716690968        0.0000000000
 H          1.2538137552       -2.1716690981        0.0000000000
 H         -2.5076274601       -0.0000000001        0.0000000000
 F          2.7253653152        0.0000000017        0.0000000000
 F         -1.3626826799       -2.3602356024        0.0000000000
 F         -1.3626826781        2.3602356035        0.0000000000

 **********************************************************************************************************************************

 Geometry written to block  1 of record 700


 **********************************************************************************************************************************
 DATASETS  * FILE   NREC   LENGTH (MB)   RECORD NAMES
              1      20      131.72       500      610      700      900      950      970     1000      129      960     1100   
                                          VAR    BASINP    GEOM    SYMINP    ZMAT    AOBASIS   BASIS     P2S    ABASIS      S 
                                         1400     1410     1200     1210     1080     1600     1650     1700     1380     5200   
                                           T        V       H0       H01     AOSYM     SMH    MOLCAS    OPER     JKOP      MP2  

              2       6        4.16       700     1000      520     2100     4100     9001   
                                         GEOM     BASIS   MCVARS     RHF     CPHF    DEN_MP2    

 PROGRAMS   *        TOTAL      OPTG       MP2    HF-SCF       INT
 CPU TIMES  *       101.35     84.90     12.20      1.83      2.33
 REAL TIME  *       116.11 SEC
 DISK USED  *       136.19 MB (local),      647.88 MB (total)
 SF USED    *       265.48 MB
 GA USED    *         0.00 MB       (max)       0.00 MB       (current)
 **********************************************************************************************************************************


 PROGRAM * HESSIAN

 Computing numerical hessian using default procedure for command MP2

 Symmetry elements for unique displacements: Y  Z  

 Using no symmetry in wavefunction calculations

 Running default procedure: HF-SCF000  MP2


 Numerically approximating hessian using central gradient differences

 Task list generated. Total number of displacements:     36

    5 tasks completed, CPU=1m 52s Elapsed=2m 7s
   10 tasks completed, CPU=3m 47s Elapsed=4m 15s
   15 tasks completed, CPU=5m 39s Elapsed=6m 21s
   20 tasks completed, CPU=7m 34s Elapsed=8m 31s
   25 tasks completed, CPU=9m 25s Elapsed=10m 34s
   30 tasks completed, CPU=11m 12s Elapsed=12m 33s
   35 tasks completed, CPU=13m 0s Elapsed=14m 33s

 Numerical MP2 hessian completed. CPU-time:   802.80 sec, Elapsed:   897.50 sec

 MP2 hessian saved to record  5300.2

 PROGRAM * FREQUENCIES (Calculation of harmonic vibrational spectra for MP2)


 Permanent Dipole Moment [debye]
   1-  3    0.000000    0.000000    0.000000

 Dipole Moment Norm    0.0000001 [debye]

 Dipole Moment Derivatives [debye/ang]
                   1             2             3             4             5             6             7             8
         1    -1.6724352     0.5709284     0.0000000     6.6176211     0.0000000     0.0000000    -1.6724352    -0.5709284
         2     0.5710459    -1.0130116     0.0000000    -0.0000003     2.2744506     0.0000000    -0.5710459    -1.0130116
         3     0.0000000     0.0000000    -0.8880496     0.0000000     0.0000000     0.6612430     0.0000000     0.0000000
                   9            10            11            12            13            14            15            16
         1     0.0000000     3.3603201     1.8804684     0.0000000    -0.6834711     0.0000000     0.0000000     3.3603201
         2     0.0000000     1.8803927     5.5317765     0.0000000     0.0000001    -2.0021268     0.0000000    -1.8803927
         3    -0.8880496     0.0000000     0.0000000     0.6612431     0.0000000     0.0000000    -0.8880504     0.0000000
                  17            18            19            20            21            22            23            24
         1    -1.8804684     0.0000000     0.3540670    -0.0954796     0.0000000     0.3540670     0.0954796     0.0000000
         2     5.5317765     0.0000000    -0.0954959     0.2438038     0.0000000     0.0954959     0.2438038     0.0000000
         3     0.0000000     0.6612431     0.0000000     0.0000000     0.8626438     0.0000000     0.0000000     0.8626438
                  25            26            27            28            29            30            31            32
         1     0.1885024     0.0000000     0.0000000    -5.8494342     0.0000000     0.0000000    -2.1787967    -2.1192010
         2     0.0000001     0.4093797     0.0000000    -0.0000001    -0.9550280     0.0000000    -2.1191470    -4.6257277
         3     0.0000000     0.0000000     0.8626437     0.0000000     0.0000000    -0.6359275     0.0000000     0.0000000
                  33            34            35            36
         1     0.0000000    -2.1787967     2.1192010     0.0000000
         2     0.0000000     2.1191470    -4.6257277     0.0000000
         3    -0.6359270     0.0000000     0.0000000    -0.6359270

 Projecting out rotations and translations

 Force Constants (Second Derivatives of the Energy) in [a.u.]
                             CX1         CY1         CZ1         CX2         CY2     
           CX1           0.7464633
           CY1           0.0258008   0.7762439
           CZ1          -0.0000000  -0.0000000   0.1048325
           CX2          -0.1609806   0.1265396  -0.0000000   0.7056472
           CY2           0.0682004  -0.3263648  -0.0000000   0.0000000   0.7462187
           CZ2           0.0000000   0.0000000  -0.0558525  -0.0000000   0.0000000
           CX3           0.0444004  -0.0105245  -0.0000000  -0.1609806  -0.0682004
           CY3           0.0105245  -0.0430968   0.0000000  -0.1265396  -0.3263648
           CZ3          -0.0000000  -0.0000000   0.0023527   0.0000000   0.0000000
           CX4          -0.0401020   0.0228649   0.0000000  -0.0272351  -0.0761012
           CY4           0.0228636  -0.0137055   0.0000000  -0.0297898   0.0339022
           CZ4          -0.0000000  -0.0000000   0.0064729  -0.0000000  -0.0000000
           CX5          -0.0212212  -0.0273646   0.0000000  -0.0005050  -0.0000000
           CY5          -0.0484081   0.0225290  -0.0000000  -0.0000000  -0.0533001
           CZ5           0.0000000   0.0000000   0.0023527  -0.0000000   0.0000000
           CX6          -0.3693779  -0.0520956  -0.0000000  -0.0272351   0.0761012
           CY6           0.0062484  -0.1180172   0.0000000   0.0297898   0.0339022
           CZ6          -0.0000000  -0.0000000  -0.0558525   0.0000000   0.0000000
           HX7          -0.1318495  -0.1326455   0.0000000   0.0111696   0.0144602
           HY7          -0.1326461  -0.2850268  -0.0000000  -0.0182762  -0.0149065
           HZ7           0.0000000  -0.0000000  -0.0285844  -0.0000000  -0.0000000
           HX8          -0.0014270  -0.0034839  -0.0000000   0.0111696  -0.0144602
           HY8          -0.0035983  -0.0031084  -0.0000000   0.0182762  -0.0149065
           HZ8          -0.0000000  -0.0000000   0.0053393  -0.0000000   0.0000000
           HX9           0.0003796  -0.0025563  -0.0000000   0.0009224   0.0000000
           HY9          -0.0024401  -0.0049148   0.0000000   0.0000000  -0.0025501
           HZ9           0.0000000   0.0000000   0.0053393  -0.0000000  -0.0000000
           FX10         -0.0422549   0.0015128   0.0000000  -0.3470805   0.0000000
           FY10          0.0453686   0.0058399  -0.0000000  -0.0000000  -0.0742671
           FZ10         -0.0000000  -0.0000000   0.0077003  -0.0000000   0.0000000
           FX11          0.0024653  -0.0025275  -0.0000000  -0.0024460   0.0101237
           FY11         -0.0025264  -0.0004528  -0.0000000   0.0034066  -0.0006814
           FZ11          0.0000000   0.0000000  -0.0018006  -0.0000000   0.0000000
           FX12         -0.0264954   0.0544799  -0.0000000  -0.0024460  -0.0101237
           FY12          0.0106127  -0.0099259  -0.0000000  -0.0034067  -0.0006814
           FZ12          0.0000000   0.0000000   0.0077003  -0.0000000  -0.0000000
                             CZ2         CX3         CY3         CZ3         CX4     
           CZ2           0.1506094
           CX3           0.0000000   0.7464633
           CY3          -0.0000000  -0.0258008   0.7762439
           CZ3          -0.0558525   0.0000000   0.0000000   0.1048325
           CX4          -0.0000000  -0.3693779   0.0520956  -0.0000000   0.7360718
           CY4          -0.0000000  -0.0062484  -0.1180172  -0.0000000  -0.0175649
           CZ4          -0.0100735  -0.0000000   0.0000000  -0.0558525   0.0000000
           CX5          -0.0000000  -0.0212212   0.0273646   0.0000000  -0.2006836
           CY5          -0.0000000   0.0484081   0.0225290   0.0000000   0.0911239
           CZ5           0.0064729   0.0000000  -0.0000000   0.0023527  -0.0000000
           CX6          -0.0000000  -0.0401020  -0.0228649   0.0000000   0.0644680
           CY6           0.0000000  -0.0228636  -0.0137055  -0.0000000   0.0231587
           CZ6          -0.0100735  -0.0000000   0.0000000   0.0064729  -0.0000000
           HX7           0.0000000  -0.0014270   0.0034839  -0.0000000  -0.0016854
           HY7          -0.0000000   0.0035983  -0.0031084   0.0000000   0.0015049
           HZ7           0.0027618  -0.0000000   0.0000000   0.0053393   0.0000000
           HX8           0.0000000  -0.1318495   0.1326455   0.0000000  -0.0067341
           HY8           0.0000000   0.1326461  -0.2850268   0.0000000  -0.0041244
           HZ8           0.0027618   0.0000000   0.0000000  -0.0285844  -0.0000000
           HX9           0.0000000   0.0003796   0.0025563   0.0000000  -0.0100397
           HY9          -0.0000000   0.0024401  -0.0049148  -0.0000000   0.0267071
           HZ9          -0.0015172   0.0000000  -0.0000000   0.0053393  -0.0000000
           FX10          0.0000000  -0.0422549  -0.0015128  -0.0000000   0.0047353
           FY10          0.0000000  -0.0453686   0.0058399   0.0000000   0.0059619
           FZ10         -0.0449829  -0.0000000   0.0000000   0.0077003   0.0000000
           FX11          0.0000000  -0.0264954  -0.0544799   0.0000000  -0.1424343
           FY11         -0.0000000  -0.0106127  -0.0099259   0.0000000  -0.1181244
           FZ11          0.0078732   0.0000000  -0.0000000   0.0077003  -0.0000000
           FX12          0.0000000   0.0024653   0.0025275  -0.0000000  -0.0069830
           FY12          0.0000000   0.0025264  -0.0004528   0.0000000  -0.0075022
           FZ12          0.0078732   0.0000000  -0.0000000  -0.0018006   0.0000000
                             CY4         CZ4         CX5         CY5         CZ5     
           CY4           0.7157829
           CZ4           0.0000000   0.1506093
           CX5           0.1494622   0.0000000   0.7911397
           CY5          -0.2866589  -0.0000000  -0.0000000   0.7315698
           CZ5          -0.0000000  -0.0558525  -0.0000000  -0.0000000   0.1048325
           CX6          -0.0231587  -0.0000000  -0.2006836  -0.0911239  -0.0000000
           CY6          -0.0578042   0.0000000  -0.1494622  -0.2866589   0.0000000
           CZ6          -0.0000000  -0.0100735   0.0000000   0.0000000  -0.0558525
           HX7           0.0015060   0.0000000  -0.0057548   0.0010995   0.0000000
           HY7           0.0000538  -0.0000000   0.0009849   0.0012188  -0.0000000
           HZ7           0.0000000  -0.0015172   0.0000000  -0.0000000   0.0053393
           HX8           0.0286129  -0.0000000  -0.0057548  -0.0010995   0.0000000
           HY8           0.0029994  -0.0000000  -0.0009849   0.0012188   0.0000000
           HZ8          -0.0000000   0.0027618   0.0000000   0.0000000   0.0053393
           HX9          -0.0060316  -0.0000000  -0.3616393   0.0000000   0.0000000
           HY9           0.0063017   0.0000000   0.0000000  -0.0552817  -0.0000000
           HZ9          -0.0000000   0.0027618  -0.0000000  -0.0000000  -0.0285844
           FX10         -0.0007384   0.0000000  -0.0019104  -0.0000000   0.0000000
           FY10         -0.0078547  -0.0000000   0.0000000   0.0039104   0.0000000
           FZ10          0.0000000   0.0078732  -0.0000000   0.0000000  -0.0018006
           FX11         -0.1181261  -0.0000000   0.0141171   0.0128351   0.0000000
           FY11         -0.2788516  -0.0000000  -0.0310333  -0.0505380  -0.0000000
           FZ11          0.0000000  -0.0449829   0.0000000  -0.0000000   0.0077003
           FX12         -0.0007869  -0.0000000   0.0141171  -0.0128351   0.0000000
           FY12          0.0038520  -0.0000000   0.0310333  -0.0505380   0.0000000
           FZ12          0.0000000   0.0078732  -0.0000000   0.0000000   0.0077003
                             CX6         CY6         CZ6         HX7         HY7     
           CX6           0.7360718
           CY6           0.0175649   0.7157829
           CZ6           0.0000000  -0.0000000   0.1506093
           HX7          -0.0067341  -0.0286129  -0.0000000   0.1310335
           HY7           0.0041244   0.0029994   0.0000000   0.1425213   0.2956151
           HZ7          -0.0000000   0.0000000   0.0027618  -0.0000000   0.0000000
           HX8          -0.0016854  -0.0015060   0.0000000   0.0005908  -0.0007962
           HY8          -0.0015049   0.0000538   0.0000000   0.0007962  -0.0007082
           HZ8           0.0000000  -0.0000000  -0.0015172  -0.0000000  -0.0000000
           HX9          -0.0100397   0.0060316   0.0000000  -0.0003830   0.0002346
           HY9          -0.0267071   0.0063017  -0.0000000  -0.0013589   0.0002655
           HZ9          -0.0000000   0.0000000   0.0027618   0.0000000   0.0000000
           FX10          0.0047353   0.0007384  -0.0000000   0.0013666  -0.0007636
           FY10         -0.0059619  -0.0078547   0.0000000  -0.0015209   0.0026249
           FZ10          0.0000000  -0.0000000   0.0078732  -0.0000000   0.0000000
           FX11         -0.0069830   0.0007869   0.0000000   0.0003739  -0.0000823
           FY11          0.0075022   0.0038520   0.0000000  -0.0000817   0.0002798
           FZ11          0.0000000  -0.0000000   0.0078732  -0.0000000   0.0000000
           FX12         -0.1424343   0.1181261  -0.0000000   0.0032994  -0.0004040
           FY12          0.1181244  -0.2788516   0.0000000   0.0003530   0.0006926
           FZ12         -0.0000000  -0.0000000  -0.0449829   0.0000000  -0.0000000
                             HZ7         HX8         HY8         HZ8         HX9     
           HZ7           0.0222011
           HX8          -0.0000000   0.1310335
           HY8           0.0000000  -0.1425213   0.2956151
           HZ8           0.0006071  -0.0000000  -0.0000000   0.0222011
           HX9           0.0000000  -0.0003830  -0.0002346  -0.0000000   0.3779275
           HY9           0.0000000   0.0013589   0.0002655  -0.0000000  -0.0000000
           HZ9           0.0006071   0.0000000  -0.0000000   0.0006071  -0.0000000
           FX10          0.0000000   0.0013666   0.0007636  -0.0000000   0.0002305
           FY10         -0.0000000   0.0015209   0.0026249   0.0000000  -0.0000000
           FZ10         -0.0046410  -0.0000000  -0.0000000  -0.0046410   0.0000000
           FX11         -0.0000000   0.0032994   0.0004040   0.0000000   0.0013226
           FY11          0.0000000  -0.0003530   0.0006926   0.0000000  -0.0007350
           FZ11         -0.0002338   0.0000000   0.0000000  -0.0046410  -0.0000000
           FX12          0.0000000   0.0003739   0.0000823  -0.0000000   0.0013226
           FY12         -0.0000000   0.0000817   0.0002798  -0.0000000   0.0007350
           FZ12         -0.0046410  -0.0000000  -0.0000000  -0.0002338  -0.0000000
                             HY9         HZ9         FX10        FY10        FZ10    
           HY9           0.0487644
           HZ9          -0.0000000   0.0222011
           FX10         -0.0000000   0.0000000   0.4285263
           FY10          0.0004222  -0.0000000  -0.0000000   0.0688957
           FZ10          0.0000000  -0.0002338  -0.0000000   0.0000000   0.0256260
           FX11         -0.0014937   0.0000000  -0.0037300  -0.0030198  -0.0000000
           FY11          0.0026701   0.0000000  -0.0032836  -0.0000907   0.0000000
           FZ11          0.0000000  -0.0046410  -0.0000000   0.0000000  -0.0002369
           FX12          0.0014937   0.0000000  -0.0037300   0.0030198  -0.0000000
           FY12          0.0026701  -0.0000000   0.0032836  -0.0000907  -0.0000000
           FZ12         -0.0000000  -0.0046410   0.0000000  -0.0000000  -0.0002369
                             FX11        FY11        FZ11        FX12        FY12    
           FX11          0.1587825
           FY11          0.1557105   0.3385966
           FZ11         -0.0000000   0.0000000   0.0256259
           FX12          0.0017278   0.0001309   0.0000000   0.1587825
           FY12         -0.0001309  -0.0055507   0.0000000  -0.1557105   0.3385966
           FZ12         -0.0000000  -0.0000000  -0.0002369  -0.0000000  -0.0000000
                             FZ12    
           FZ12          0.0256259


 Atomic Masses
   1- 10   12.011000   12.011000   12.011000   12.011000   12.011000   12.011000    1.007940    1.007940    1.007940   18.998403
  11- 12   18.998403   18.998403

 Mass weighted Second Derivative Matrix
                             CX1         CY1         CZ1         CX2         CY2     
           CX1           0.0621483
           CY1           0.0021481   0.0646278
           CZ1          -0.0000000  -0.0000000   0.0087280
           CX2          -0.0134028   0.0105353  -0.0000000   0.0587501
           CY2           0.0056782  -0.0271722  -0.0000000   0.0000000   0.0621279
           CZ2           0.0000000   0.0000000  -0.0046501  -0.0000000   0.0000000
           CX3           0.0036966  -0.0008762  -0.0000000  -0.0134028  -0.0056782
           CY3           0.0008762  -0.0035881   0.0000000  -0.0105353  -0.0271722
           CZ3          -0.0000000  -0.0000000   0.0001959   0.0000000   0.0000000
           CX4          -0.0033388   0.0019037   0.0000000  -0.0022675  -0.0063360
           CY4           0.0019036  -0.0011411   0.0000000  -0.0024802   0.0028226
           CZ4          -0.0000000  -0.0000000   0.0005389  -0.0000000  -0.0000000
           CX5          -0.0017668  -0.0022783   0.0000000  -0.0000420  -0.0000000
           CY5          -0.0040303   0.0018757  -0.0000000  -0.0000000  -0.0044376
           CZ5           0.0000000   0.0000000   0.0001959  -0.0000000   0.0000000
           CX6          -0.0307533  -0.0043373  -0.0000000  -0.0022675   0.0063360
           CY6           0.0005202  -0.0098258   0.0000000   0.0024802   0.0028226
           CZ6          -0.0000000  -0.0000000  -0.0046501   0.0000000   0.0000000
           HX7          -0.0378941  -0.0381229   0.0000000   0.0032102   0.0041559
           HY7          -0.0381230  -0.0819179  -0.0000000  -0.0052527  -0.0042842
           HZ7           0.0000000  -0.0000000  -0.0082153  -0.0000000  -0.0000000
           HX8          -0.0004101  -0.0010013  -0.0000000   0.0032102  -0.0041559
           HY8          -0.0010342  -0.0008934  -0.0000000   0.0052527  -0.0042842
           HZ8          -0.0000000  -0.0000000   0.0015345  -0.0000000   0.0000000
           HX9           0.0001091  -0.0007347  -0.0000000   0.0002651   0.0000000
           HY9          -0.0007013  -0.0014125   0.0000000   0.0000000  -0.0007329
           HZ9           0.0000000   0.0000000   0.0015345  -0.0000000  -0.0000000
           FX10         -0.0027972   0.0001001   0.0000000  -0.0229764   0.0000000
           FY10          0.0030034   0.0003866  -0.0000000  -0.0000000  -0.0049164
           FZ10         -0.0000000  -0.0000000   0.0005098  -0.0000000   0.0000000
           FX11          0.0001632  -0.0001673  -0.0000000  -0.0001619   0.0006702
           FY11         -0.0001672  -0.0000300  -0.0000000   0.0002255  -0.0000451
           FZ11          0.0000000   0.0000000  -0.0001192  -0.0000000   0.0000000
           FX12         -0.0017540   0.0036065  -0.0000000  -0.0001619  -0.0006702
           FY12          0.0007026  -0.0006571  -0.0000000  -0.0002255  -0.0000451
           FZ12          0.0000000   0.0000000   0.0005098  -0.0000000  -0.0000000
                             CZ2         CX3         CY3         CZ3         CX4     
           CZ2           0.0125393
           CX3           0.0000000   0.0621483
           CY3          -0.0000000  -0.0021481   0.0646278
           CZ3          -0.0046501   0.0000000   0.0000000   0.0087280
           CX4          -0.0000000  -0.0307533   0.0043373  -0.0000000   0.0612831
           CY4          -0.0000000  -0.0005202  -0.0098258  -0.0000000  -0.0014624
           CZ4          -0.0008387  -0.0000000   0.0000000  -0.0046501   0.0000000
           CX5          -0.0000000  -0.0017668   0.0022783   0.0000000  -0.0167083
           CY5          -0.0000000   0.0040303   0.0018757   0.0000000   0.0075867
           CZ5           0.0005389   0.0000000  -0.0000000   0.0001959  -0.0000000
           CX6          -0.0000000  -0.0033388  -0.0019037   0.0000000   0.0053674
           CY6           0.0000000  -0.0019036  -0.0011411  -0.0000000   0.0019281
           CZ6          -0.0008387  -0.0000000   0.0000000   0.0005389  -0.0000000
           HX7           0.0000000  -0.0004101   0.0010013  -0.0000000  -0.0004844
           HY7          -0.0000000   0.0010342  -0.0008934   0.0000000   0.0004325
           HZ7           0.0007937  -0.0000000   0.0000000   0.0015345   0.0000000
           HX8           0.0000000  -0.0378941   0.0381229   0.0000000  -0.0019354
           HY8           0.0000000   0.0381230  -0.0819179   0.0000000  -0.0011854
           HZ8           0.0007937   0.0000000   0.0000000  -0.0082153  -0.0000000
           HX9           0.0000000   0.0001091   0.0007347   0.0000000  -0.0028855
           HY9          -0.0000000   0.0007013  -0.0014125  -0.0000000   0.0076757
           HZ9          -0.0004360   0.0000000  -0.0000000   0.0015345  -0.0000000
           FX10          0.0000000  -0.0027972  -0.0001001  -0.0000000   0.0003135
           FY10          0.0000000  -0.0030034   0.0003866   0.0000000   0.0003947
           FZ10         -0.0029778  -0.0000000   0.0000000   0.0005098   0.0000000
           FX11          0.0000000  -0.0017540  -0.0036065   0.0000000  -0.0094290
           FY11         -0.0000000  -0.0007026  -0.0006571   0.0000000  -0.0078197
           FZ11          0.0005212   0.0000000  -0.0000000   0.0005098  -0.0000000
           FX12          0.0000000   0.0001632   0.0001673  -0.0000000  -0.0004623
           FY12          0.0000000   0.0001672  -0.0000300   0.0000000  -0.0004966
           FZ12          0.0005212   0.0000000  -0.0000000  -0.0001192   0.0000000
                             CY4         CZ4         CX5         CY5         CZ5     
           CY4           0.0595939
           CZ4           0.0000000   0.0125393
           CX5           0.0124438   0.0000000   0.0658679
           CY5          -0.0238664  -0.0000000  -0.0000000   0.0609083
           CZ5          -0.0000000  -0.0046501  -0.0000000  -0.0000000   0.0087280
           CX6          -0.0019281  -0.0000000  -0.0167083  -0.0075867  -0.0000000
           CY6          -0.0048126   0.0000000  -0.0124438  -0.0238664   0.0000000
           CZ6          -0.0000000  -0.0008387   0.0000000   0.0000000  -0.0046501
           HX7           0.0004328   0.0000000  -0.0016539   0.0003160   0.0000000
           HY7           0.0000155  -0.0000000   0.0002831   0.0003503  -0.0000000
           HZ7           0.0000000  -0.0004360   0.0000000  -0.0000000   0.0015345
           HX8           0.0082235  -0.0000000  -0.0016539  -0.0003160   0.0000000
           HY8           0.0008621  -0.0000000  -0.0002831   0.0003503   0.0000000
           HZ8          -0.0000000   0.0007937   0.0000000   0.0000000   0.0015345
           HX9          -0.0017335  -0.0000000  -0.1039367   0.0000000   0.0000000
           HY9           0.0018111   0.0000000   0.0000000  -0.0158882  -0.0000000
           HZ9          -0.0000000   0.0007938  -0.0000000  -0.0000000  -0.0082153
           FX10         -0.0000489   0.0000000  -0.0001265  -0.0000000   0.0000000
           FY10         -0.0005200  -0.0000000   0.0000000   0.0002589   0.0000000
           FZ10          0.0000000   0.0005212  -0.0000000   0.0000000  -0.0001192
           FX11         -0.0078198  -0.0000000   0.0009345   0.0008497   0.0000000
           FY11         -0.0184597  -0.0000000  -0.0020544  -0.0033456  -0.0000000
           FZ11          0.0000000  -0.0029778   0.0000000  -0.0000000   0.0005098
           FX12         -0.0000521  -0.0000000   0.0009345  -0.0008497   0.0000000
           FY12          0.0002550  -0.0000000   0.0020544  -0.0033456   0.0000000
           FZ12          0.0000000   0.0005212  -0.0000000   0.0000000   0.0005098
                             CX6         CY6         CZ6         HX7         HY7     
           CX6           0.0612831
           CY6           0.0014624   0.0595939
           CZ6           0.0000000  -0.0000000   0.0125393
           HX7          -0.0019354  -0.0082235  -0.0000000   0.1300013
           HY7           0.0011854   0.0008621   0.0000000   0.1413986   0.2932864
           HZ7          -0.0000000   0.0000000   0.0007937  -0.0000000   0.0000000
           HX8          -0.0004844  -0.0004328   0.0000000   0.0005861  -0.0007899
           HY8          -0.0004325   0.0000155   0.0000000   0.0007899  -0.0007027
           HZ8           0.0000000  -0.0000000  -0.0004360  -0.0000000  -0.0000000
           HX9          -0.0028855   0.0017335   0.0000000  -0.0003800   0.0002328
           HY9          -0.0076757   0.0018111  -0.0000000  -0.0013482   0.0002635
           HZ9          -0.0000000   0.0000000   0.0007938   0.0000000   0.0000000
           FX10          0.0003135   0.0000489  -0.0000000   0.0003123  -0.0001745
           FY10         -0.0003947  -0.0005200   0.0000000  -0.0003476   0.0005998
           FZ10          0.0000000  -0.0000000   0.0005212  -0.0000000   0.0000000
           FX11         -0.0004623   0.0000521   0.0000000   0.0000854  -0.0000188
           FY11          0.0004966   0.0002550   0.0000000  -0.0000187   0.0000639
           FZ11          0.0000000  -0.0000000   0.0005212  -0.0000000   0.0000000
           FX12         -0.0094290   0.0078198  -0.0000000   0.0007540  -0.0000923
           FY12          0.0078197  -0.0184597   0.0000000   0.0000807   0.0001583
           FZ12         -0.0000000  -0.0000000  -0.0029778   0.0000000  -0.0000000
                             HZ7         HX8         HY8         HZ8         HX9     
           HZ7           0.0220262
           HX8          -0.0000000   0.1300013
           HY8           0.0000000  -0.1413986   0.2932864
           HZ8           0.0006023  -0.0000000  -0.0000000   0.0220262
           HX9           0.0000000  -0.0003800  -0.0002328  -0.0000000   0.3749504
           HY9           0.0000000   0.0013482   0.0002635  -0.0000000  -0.0000000
           HZ9           0.0006023   0.0000000  -0.0000000   0.0006023  -0.0000000
           FX10          0.0000000   0.0003123   0.0001745  -0.0000000   0.0000527
           FY10         -0.0000000   0.0003476   0.0005998   0.0000000  -0.0000000
           FZ10         -0.0010606  -0.0000000  -0.0000000  -0.0010606   0.0000000
           FX11         -0.0000000   0.0007540   0.0000923   0.0000000   0.0003022
           FY11          0.0000000  -0.0000807   0.0001583   0.0000000  -0.0001680
           FZ11         -0.0000534   0.0000000   0.0000000  -0.0010606  -0.0000000
           FX12          0.0000000   0.0000854   0.0000188  -0.0000000   0.0003022
           FY12         -0.0000000   0.0000187   0.0000639  -0.0000000   0.0001680
           FZ12         -0.0010606  -0.0000000  -0.0000000  -0.0000534  -0.0000000
                             HY9         HZ9         FX10        FY10        FZ10    
           HY9           0.0483803
           HZ9          -0.0000000   0.0220262
           FX10         -0.0000000   0.0000000   0.0225559
           FY10          0.0000965  -0.0000000  -0.0000000   0.0036264
           FZ10          0.0000000  -0.0000534  -0.0000000   0.0000000   0.0013488
           FX11         -0.0003413   0.0000000  -0.0001963  -0.0001590  -0.0000000
           FY11          0.0006102   0.0000000  -0.0001728  -0.0000048   0.0000000
           FZ11          0.0000000  -0.0010606  -0.0000000   0.0000000  -0.0000125
           FX12          0.0003413   0.0000000  -0.0001963   0.0001590  -0.0000000
           FY12          0.0006102  -0.0000000   0.0001728  -0.0000048  -0.0000000
           FZ12         -0.0000000  -0.0010606   0.0000000  -0.0000000  -0.0000125
                             FX11        FY11        FZ11        FX12        FY12    
           FX11          0.0083577
           FY11          0.0081960   0.0178224
           FZ11         -0.0000000   0.0000000   0.0013488
           FX12          0.0000909   0.0000069   0.0000000   0.0083577
           FY12         -0.0000069  -0.0002922   0.0000000  -0.0081960   0.0178224
           FZ12         -0.0000000  -0.0000000  -0.0000125  -0.0000000  -0.0000000
                             FZ12    
           FZ12          0.0013488


 Mass Weighted 2nd Derivative Matrix Eigenvalues
   1- 10    0.000000    0.000000    0.000000    0.000000    0.000000    0.000000    0.001725    0.002421    0.002421    0.003981
  11- 20    0.003982    0.009436    0.009437    0.011371    0.012745    0.014523    0.014523    0.016362    0.026450    0.027751
  21- 30    0.027751    0.038896    0.038898    0.039721    0.049776    0.049780    0.054796    0.075780    0.083344    0.086635
  31- 36    0.086638    0.107860    0.107860    0.406606    0.406921    0.406945

 Mass Weighted 2nd Derivative Matrix Eigenvectors
                   1             2             3             4             5             6             7             8
         1     0.3491591     0.0001190     0.0000728    -0.0000138     0.0000639     0.0000053     0.0000000     0.0000000
         2    -0.0512617     0.1958793    -0.1082911     0.0040332    -0.0159238    -0.2196968     0.0000000     0.0000000
         3    -0.0001392     0.2345066     0.0139509    -0.1213813     0.2663977     0.1807025    -0.3204627     0.5731853
         4     0.2603939     0.0578527     0.1175079     0.0383995     0.0058761    -0.0668188     0.0000000     0.0000000
         5    -0.0998251     0.2274653    -0.0440425     0.0250490    -0.0127440    -0.2562562     0.0000000     0.0000000
         6    -0.0001177     0.3085779     0.0179304    -0.0610515     0.0126758     0.2642745    -0.2135310     0.0097229
         7     0.1716288     0.1155863     0.2349431     0.0768128     0.0116882    -0.1336429     0.0000000     0.0000000
         8    -0.0512617     0.1958793    -0.1082911     0.0040332    -0.0159238    -0.2196968     0.0000000     0.0000000
         9    -0.0000532     0.2511325    -0.0315594     0.1754774    -0.1238793     0.2516756    -0.3204628    -0.5306174
        10     0.1739543     0.1140737     0.2318665     0.0758064     0.0115359    -0.1318922     0.0000000     0.0000000
        11     0.0498928     0.1300875    -0.2421173    -0.0397417    -0.0225471    -0.1435457     0.0000000     0.0000000
        12    -0.0000096     0.1139439    -0.0866498     0.3550949     0.0032587     0.1505867    -0.2135309    -0.1309216
        13     0.2603939     0.0578527     0.1175079     0.0383995     0.0058761    -0.0668188     0.0000000     0.0000000
        14     0.1024840     0.0958817    -0.3116948    -0.0625006    -0.0259907    -0.1039541     0.0000000     0.0000000
        15    -0.0000282     0.0346364    -0.0934429     0.3059608     0.2567273     0.0639561    -0.3204620    -0.0425679
        16     0.3468336     0.0016316     0.0031494     0.0009926     0.0002162    -0.0017454     0.0000000     0.0000000
        17     0.0498928     0.1300875    -0.2421173    -0.0397417    -0.0225471    -0.1435457     0.0000000     0.0000000
        18    -0.0000933     0.0977536    -0.0423319     0.0660134     0.3833111     0.0814729    -0.2135309     0.1211986
        19     0.1209671    -0.0128570    -0.0262013    -0.0085814    -0.0012793     0.0149228     0.0000000     0.0000000
        20    -0.0262932     0.0641864    -0.0162310     0.0061205    -0.0038636    -0.0722579     0.0000000     0.0000000
        21    -0.0000550     0.0815724     0.0154221    -0.0890653     0.1069401     0.0557539    -0.0218122     0.2672667
        22     0.0298979     0.0463752     0.0942821     0.0308290     0.0046837    -0.0536358     0.0000000     0.0000000
        23    -0.0262932     0.0641864    -0.0162310     0.0061205    -0.0038636    -0.0722579     0.0000000     0.0000000
        24    -0.0000109     0.0901010    -0.0079236     0.0632168    -0.0932636     0.0921616    -0.0218122    -0.2474181
        25     0.0754325     0.0167591     0.0340404     0.0111238     0.0017022    -0.0193565     0.0000000     0.0000000
        26     0.0525750     0.0128898    -0.1205726    -0.0280099    -0.0090277    -0.0128844     0.0000000     0.0000000
        27     0.0000019    -0.0209568    -0.0396685     0.1301520     0.1019794    -0.0041344    -0.0218119    -0.0198487
        28     0.3274914     0.0727599     0.1477870     0.0482941     0.0073902    -0.0840364     0.0000000     0.0000000
        29    -0.2481093     0.3657928     0.1067562     0.0845424    -0.0080027    -0.4145541     0.0000000     0.0000000
        30    -0.0002022     0.5540487     0.0900220    -0.2991240    -0.1319077     0.4537275     0.4296116    -0.0257048
        31     0.1126367     0.2125032     0.4320368     0.1412729     0.0214584    -0.2457830     0.0000000     0.0000000
        32     0.1240298     0.1237504    -0.3855789    -0.0765015    -0.0323695    -0.1344008     0.0000000     0.0000000
        33     0.0000664     0.0702660    -0.1699228     0.7352504    -0.1553147     0.1711448     0.4296112     0.3461205
        34     0.5423460    -0.0669833    -0.1364628    -0.0446846    -0.0066780     0.0777102     0.0000000     0.0000000
        35     0.1240298     0.1237504    -0.3855789    -0.0765015    -0.0323695    -0.1344008     0.0000000     0.0000000
        36    -0.0001417     0.0300235    -0.0597659     0.0167088     0.7893443    -0.0006445     0.4296112    -0.3204158
                   9            10            11            12            13            14            15            16
         1     0.0000000    -0.1460143    -0.0552465    -0.1061829    -0.2094030    -0.2611546     0.0100179     0.0000000
         2     0.0000000    -0.0552185    -0.2097865    -0.2094639    -0.3479022     0.1508087     0.0173667     0.0000000
         3    -0.2817754     0.0000000     0.0000000     0.0000000     0.0000000     0.0000000     0.0000000     0.1033850
         4     0.0000000    -0.1339690    -0.0000116     0.2866012    -0.0000550     0.0000000     0.2323715     0.0000000
         5     0.0000000     0.0000105    -0.1219872    -0.0000578    -0.3010861     0.3063480     0.0000000     0.0000000
         6    -0.1455615     0.0000000     0.0000000     0.0000000     0.0000000     0.0000000     0.0000000    -0.0051868
         7     0.0000000    -0.1460239     0.0552212    -0.1061025     0.2094437     0.2611546     0.0100179     0.0000000
         8     0.0000000     0.0552548    -0.2097770     0.2093303    -0.3479827     0.1508087    -0.0173666     0.0000000
         9    -0.3555051     0.0000000     0.0000000     0.0000000     0.0000000     0.0000000     0.0000000    -0.1025293
        10     0.0000000    -0.1250219    -0.0051531    -0.1541181     0.2545234     0.2652835    -0.1161805     0.0000000
        11     0.0000000    -0.0051507    -0.1310062     0.2545080     0.1396027    -0.1531581    -0.2012161     0.0000000
        12     0.0643607     0.0000000     0.0000000     0.0000000     0.0000000     0.0000000     0.0000000     0.6266538
        13     0.0000000    -0.2416997    -0.0000209    -0.4688367     0.0000900    -0.0000000    -0.0200736     0.0000000
        14     0.0000000     0.0000099    -0.1141377     0.0000028     0.0147315    -0.3015497     0.0000000     0.0000000
        15     0.6372810     0.0000000     0.0000000     0.0000000     0.0000000     0.0000000     0.0000000    -0.0008557
        16     0.0000000    -0.1250228     0.0051314    -0.1542158    -0.2544641    -0.2652835    -0.1161805     0.0000000
        17     0.0000000     0.0051734    -0.1310053    -0.2544544     0.1397005    -0.1531582     0.2012161     0.0000000
        18     0.0812013     0.0000000     0.0000000     0.0000000     0.0000000     0.0000000     0.0000000    -0.6214670
        19     0.0000000    -0.0579380    -0.0075449    -0.1464065     0.0068078    -0.2103277     0.0048414     0.0000000
        20     0.0000000    -0.0075249    -0.0666231     0.0067653    -0.1385629     0.1214391     0.0084045     0.0000000
        21    -0.1313872     0.0000000     0.0000000     0.0000000     0.0000000     0.0000000     0.0000000     0.2796709
        22     0.0000000    -0.0579393     0.0075349    -0.1464091    -0.0067515     0.2103277     0.0048414     0.0000000
        23     0.0000000     0.0075364    -0.0666218    -0.0068185    -0.1385603     0.1214391    -0.0084045     0.0000000
        24    -0.1657661     0.0000000     0.0000000     0.0000000     0.0000000     0.0000000     0.0000000    -0.2773560
        25     0.0000000    -0.0709834    -0.0000061    -0.1346436     0.0000259     0.0000000    -0.0097039     0.0000000
        26     0.0000000     0.0000046    -0.0535945    -0.0000289    -0.1502960    -0.2428083     0.0000000     0.0000000
        27     0.2971534     0.0000000     0.0000000     0.0000000     0.0000000     0.0000000     0.0000000    -0.0023149
        28     0.0000000    -0.2016480    -0.0000174     0.4809132    -0.0000923     0.0000000     0.5280640     0.0000000
        29     0.0000000    -0.0000620     0.7167906    -0.0000082    -0.0426971    -0.2993449    -0.0000000     0.0000000
        30     0.3848246     0.0000000     0.0000000     0.0000000     0.0000000     0.0000000     0.0000000     0.0012426
        31     0.0000000     0.4872385    -0.3976888     0.0882421     0.2266987    -0.2591857    -0.2640187     0.0000000
        32     0.0000000    -0.3976897     0.0279275     0.2268289     0.3499880     0.1496249    -0.4573179     0.0000000
        33    -0.1701517     0.0000000     0.0000000     0.0000000     0.0000000     0.0000000     0.0000000    -0.1501297
        34     0.0000000     0.4871697     0.3977731     0.0881550    -0.2267326     0.2591857    -0.2640187     0.0000000
        35     0.0000000     0.3976849     0.0279963    -0.2266945     0.3500751     0.1496248     0.4573179     0.0000000
        36    -0.2146738     0.0000000     0.0000000     0.0000000     0.0000000     0.0000000     0.0000000     0.1488870
                  17            18            19            20            21            22            23            24
         1     0.0000000     0.0000000     0.0000000     0.0000000     0.0000000     0.2540499    -0.3375338    -0.2743844
         2     0.0000000     0.0000000     0.0000000     0.0000000     0.0000000    -0.3372240    -0.1359319    -0.4757948
         3    -0.0587010    -0.2872370    -0.2391616     0.3437758     0.2092915     0.0000000     0.0000000     0.0000000
         4     0.0000000     0.0000000     0.0000000     0.0000000     0.0000000     0.1576890     0.0000079     0.0618411
         5     0.0000000     0.0000000     0.0000000     0.0000000     0.0000000    -0.0000022     0.0436410     0.0000000
         6     0.7206026     0.4060663     0.1786469     0.0050841    -0.2184619     0.0000000     0.0000000     0.0000000
         7     0.0000000     0.0000000     0.0000000     0.0000000     0.0000000     0.2540163     0.3375590    -0.2743845
         8     0.0000000     0.0000000     0.0000000     0.0000000     0.0000000     0.3372376    -0.1358982     0.4757949
         9    -0.0601831    -0.2872370    -0.2391616    -0.3531398     0.1930726     0.0000000     0.0000000     0.0000000
        10     0.0000000     0.0000000     0.0000000     0.0000000     0.0000000     0.0722252     0.0494153    -0.0308301
        11     0.0000000     0.0000000     0.0000000     0.0000000     0.0000000     0.0494410     0.1293394    -0.0534048
        12    -0.3558098     0.4060654     0.1786468     0.1866516     0.1136342     0.0000000     0.0000000     0.0000000
        13     0.0000000     0.0000000     0.0000000     0.0000000     0.0000000    -0.3312036    -0.0000164     0.5489141
        14     0.0000000     0.0000000     0.0000000     0.0000000     0.0000000    -0.0000223     0.4488454    -0.0000001
        15     0.1188848    -0.2872369    -0.2391612     0.0093640    -0.4023647     0.0000000     0.0000000     0.0000000
        16     0.0000000     0.0000000     0.0000000     0.0000000     0.0000000     0.0722301    -0.0494082    -0.0308301
        17     0.0000000     0.0000000     0.0000000     0.0000000     0.0000000    -0.0494539     0.1293345     0.0534047
        18    -0.3647937     0.4060653     0.1786468    -0.1917357     0.1048282     0.0000000     0.0000000     0.0000000
        19     0.0000000     0.0000000     0.0000000     0.0000000     0.0000000     0.3378945    -0.2533613    -0.0833773
        20     0.0000000     0.0000000     0.0000000     0.0000000     0.0000000    -0.2532923     0.0452126    -0.1450007
        21    -0.1587948    -0.2918841     0.4899292    -0.5747681    -0.3499200     0.0000000     0.0000000     0.0000000
        22     0.0000000     0.0000000     0.0000000     0.0000000     0.0000000     0.3378694     0.2533949    -0.0833773
        23     0.0000000     0.0000000     0.0000000     0.0000000     0.0000000     0.2532878     0.0452378     0.1450007
        24    -0.1628043    -0.2918841     0.4899291     0.5904240    -0.3228032     0.0000000     0.0000000     0.0000000
        25     0.0000000     0.0000000     0.0000000     0.0000000     0.0000000    -0.1011835    -0.0000050     0.1671627
        26     0.0000000     0.0000000     0.0000000     0.0000000     0.0000000    -0.0000241     0.4838909    -0.0000001
        27     0.3216000    -0.2918838     0.4899283    -0.0156559     0.6727243     0.0000000     0.0000000     0.0000000
        28     0.0000000     0.0000000     0.0000000     0.0000000     0.0000000    -0.2849664    -0.0000142    -0.0034310
        29     0.0000000     0.0000000     0.0000000     0.0000000     0.0000000     0.0000028    -0.0571528     0.0000000
        30    -0.1726374    -0.0272520    -0.0647313    -0.0014948     0.0642298     0.0000000     0.0000000     0.0000000
        31     0.0000000     0.0000000     0.0000000     0.0000000     0.0000000    -0.1141180    -0.0986910     0.0015388
        32     0.0000000     0.0000000     0.0000000     0.0000000     0.0000000    -0.0986487    -0.2281355     0.0027251
        33     0.0852425    -0.0272517    -0.0647312    -0.0548772    -0.0334095     0.0000000     0.0000000     0.0000000
        34     0.0000000     0.0000000     0.0000000     0.0000000     0.0000000    -0.1141278     0.0986796     0.0015388
        35     0.0000000     0.0000000     0.0000000     0.0000000     0.0000000     0.0986714    -0.2281257    -0.0027250
        36     0.0873948    -0.0272517    -0.0647312     0.0563720    -0.0308204     0.0000000     0.0000000     0.0000000
                  25            26            27            28            29            30            31            32
         1    -0.1480209     0.0871256    -0.1078666     0.0258465     0.3730117    -0.0867204    -0.2251591    -0.1405058
         2     0.0871338    -0.0475059     0.0622381     0.0447367    -0.2154252     0.2250648    -0.1731424     0.2788043
         3     0.0000000     0.0000000     0.0000000     0.0000000     0.0000000     0.0000000     0.0000000     0.0000000
         4    -0.4094257    -0.0000137     0.0000000     0.5247974     0.0000000     0.4194891    -0.0000243    -0.0007518
         5     0.0000025    -0.0733740     0.2405686     0.0000000     0.3775370     0.0000289     0.4984124    -0.4626558
         6     0.0000000     0.0000000     0.0000000     0.0000000     0.0000000     0.0000000     0.0000000     0.0000000
         7    -0.1480151    -0.0871355     0.1078666     0.0258465    -0.3730117    -0.0866943     0.2251691     0.1425395
         8    -0.0871306    -0.0475118     0.0622381    -0.0447367    -0.2154252    -0.2250848    -0.1731164     0.2794546
         9     0.0000000     0.0000000     0.0000000     0.0000000     0.0000000     0.0000000     0.0000000     0.0000000
        10    -0.1572844    -0.1458269     0.2082224    -0.2623547     0.3267390    -0.2690126    -0.3975568     0.0576422
        11    -0.1456188    -0.3252927    -0.1206276    -0.4544566    -0.1887337     0.3974796    -0.1899041    -0.3609509
        12     0.0000000     0.0000000     0.0000000     0.0000000     0.0000000     0.0000000     0.0000000     0.0000000
        13     0.0028982     0.0000001    -0.0000000    -0.0516890     0.0000000     0.3030846    -0.0000176     0.0004536
        14     0.0000066    -0.1980129    -0.1246586     0.0000000     0.4308317     0.0000126     0.2165373     0.5242760
        15     0.0000000     0.0000000     0.0000000     0.0000000     0.0000000     0.0000000     0.0000000     0.0000000
        16    -0.1572941     0.1458164    -0.2082224    -0.2623547    -0.3267390    -0.2689666     0.3975880    -0.0596128
        17     0.1456406    -0.3252830    -0.1206276     0.4544566    -0.1887337    -0.3975017    -0.1898581    -0.3612204
        18     0.0000000     0.0000000     0.0000000     0.0000000     0.0000000     0.0000000     0.0000000     0.0000000
        19     0.4153014    -0.2410432     0.4398675     0.0142469    -0.0625179     0.2234117     0.0653971     0.0956804
        20    -0.2405708     0.1377311    -0.2539608     0.0246966     0.0360688    -0.0654100    -0.1478757     0.0118535
        21     0.0000000     0.0000000     0.0000000     0.0000000     0.0000000     0.0000000     0.0000000     0.0000000
        22     0.4152853     0.2410710    -0.4398675     0.0142469     0.0625179     0.2234042    -0.0654230    -0.0961359
        23     0.2405615     0.1377472    -0.2539608    -0.0246966     0.0360687     0.0653929    -0.1478833     0.0114128
        24     0.0000000     0.0000000     0.0000000     0.0000000     0.0000000     0.0000000     0.0000000     0.0000000
        25    -0.0013984    -0.0000000     0.0000000    -0.0285190     0.0000000     0.1101002    -0.0000064     0.0001539
        26    -0.0000185     0.5538234     0.5087811     0.0000000    -0.0723193    -0.0000151    -0.2612137    -0.1545660
        27     0.0000000     0.0000000     0.0000000     0.0000000     0.0000000     0.0000000     0.0000000     0.0000000
        28     0.3825210     0.0000128    -0.0000000    -0.2334286     0.0000000    -0.1429150     0.0000083     0.0001241
        29    -0.0000010     0.0293394    -0.0405591     0.0000000     0.0107931    -0.0000030    -0.0514720     0.0203884
        30     0.0000000     0.0000000     0.0000000     0.0000000     0.0000000     0.0000000     0.0000000     0.0000000
        31     0.1176126     0.1529559    -0.0349951     0.1166806     0.0094126     0.0028792     0.0841426     0.0146198
        32     0.1529449     0.2941362     0.0205260     0.2021123    -0.0053959    -0.0841561     0.0942874     0.0456278
        33     0.0000000     0.0000000     0.0000000     0.0000000     0.0000000     0.0000000     0.0000000     0.0000000
        34     0.1176228    -0.1529480     0.0349951     0.1166806    -0.0094126     0.0028695    -0.0841430    -0.0144875
        35    -0.1529646     0.2941260     0.0205261    -0.2021123    -0.0053959     0.0841671     0.0942777     0.0455610
        36     0.0000000     0.0000000     0.0000000     0.0000000     0.0000000     0.0000000     0.0000000     0.0000000
                  33            34            35            36
         1     0.4428874     0.0872445    -0.1043119    -0.0546723
         2    -0.1421522     0.1512485    -0.1789543    -0.0976831
         3     0.0000000     0.0000000     0.0000000     0.0000000
         4    -0.3271999     0.0128356     0.0000002    -0.0073231
         5     0.0010630    -0.0000000     0.0187804     0.0000004
         6     0.0000000     0.0000000     0.0000000     0.0000000
         7     0.4422371     0.0872443     0.1043145    -0.0546678
         8     0.1408695    -0.1512482    -0.1789588     0.0976754
         9     0.0000000     0.0000000     0.0000000     0.0000000
        10    -0.4289597    -0.0067830    -0.0115497     0.0118223
        11     0.0594776    -0.0102957    -0.0012179    -0.0120170
        12     0.0000000     0.0000000     0.0000000     0.0000000
        13     0.1974179    -0.1586335     0.0000051    -0.2464855
        14    -0.0012046     0.0000000     0.0017230     0.0000000
        15     0.0000000     0.0000000     0.0000000     0.0000000
        16    -0.4286903    -0.0067830     0.0115492     0.0118228
        17    -0.0578183     0.0102957    -0.0012184     0.0120169
        18     0.0000000     0.0000000     0.0000000     0.0000000
        19    -0.0993295    -0.2842782     0.3381227     0.1822660
        20     0.0958808    -0.4924396     0.5851836     0.3165431
        21     0.0000000     0.0000000     0.0000000     0.0000000
        22    -0.0988887    -0.2842775    -0.3381311     0.1822516
        23    -0.0959343     0.4924384     0.5851981    -0.3165181
        24     0.0000000     0.0000000     0.0000000     0.0000000
        25     0.0669979     0.5164896    -0.0000166     0.8042004
        26     0.0003551     0.0000000    -0.0004857    -0.0000000
        27     0.0000000     0.0000000     0.0000000     0.0000000
        28     0.0539939    -0.0018625    -0.0000000     0.0014042
        29    -0.0000468     0.0000000    -0.0009871    -0.0000000
        30     0.0000000     0.0000000     0.0000000     0.0000000
        31     0.0287551     0.0009146     0.0010707    -0.0003275
        32     0.0144482     0.0015081     0.0008685     0.0011403
        33     0.0000000     0.0000000     0.0000000     0.0000000
        34     0.0288219     0.0009146    -0.0010707    -0.0003276
        35    -0.0146577    -0.0015081     0.0008686    -0.0011402
        36     0.0000000     0.0000000     0.0000000     0.0000000

   Low Vibration      Wavenumber
        Nr             [1/cm] 
        1                0.00
        2                0.00
        3                0.00
        4                0.00
        5                0.00
        6                0.00

     Vibration        Wavenumber
        Nr             [1/cm] 
        1              213.48
        2              252.93
        3              252.93
        4              324.35
        5              324.37
        6              499.35
        7              499.37
        8              548.14
        9              580.32
       10              619.49
       11              619.49
       12              657.53
       13              836.02
       14              856.33
       15              856.33
       16             1013.81
       17             1013.83
       18             1024.50
       19             1146.86
       20             1146.90
       21             1203.31
       22             1415.07
       23             1484.01
       24             1513.03
       25             1513.06
       26             1688.23
       27             1688.23
       28             3277.84
       29             3279.11
       30             3279.21

 FREQUENCIES * CALCULATION OF NORMAL MODES FOR MP2


 Atomic Coordinates

  Nr  Atom  Charge       X              Y              Z

   1   C     6.00    1.338013320    2.317507066    0.000000000
   2   C     6.00    2.605919069   -0.000000000    0.000000000
   3   C     6.00    1.338013321   -2.317507070    0.000000000
   4   C     6.00   -1.302959544   -2.256792141    0.000000000
   5   C     6.00   -2.676026631    0.000000001    0.000000000
   6   C     6.00   -1.302959546    2.256792141    0.000000000
   7   H     1.00    2.369364606    4.103859826    0.000000000
   8   H     1.00    2.369364608   -4.103859829    0.000000000
   9   H     1.00   -4.738729122   -0.000000000    0.000000000
  10   F     9.00    5.150194035    0.000000003    0.000000000
  11   F     9.00   -2.575097060   -4.460198878    0.000000000
  12   F     9.00   -2.575097056    4.460198880    0.000000000

 Gradient norm at reference geometry: 0.53024D-03

 ?WARNING: GRADIENT NORM NOT ZERO!

 Normal Modes

                              1 A``       2 A``       3 A``       4 A`        5 A` 
 Wavenumbers [cm-1]          213.48      252.93      252.93      324.35      324.37
 Intensities [km/mol]          0.61        0.00        0.00        1.97        1.97
 Intensities [relative]        0.33        0.00        0.00        1.06        1.06
           CX1             -0.00000    -0.00000    -0.00000    -0.04213    -0.01594
           CY1              0.00000    -0.00000    -0.00000    -0.01593    -0.06053
           CZ1             -0.09247     0.16539    -0.08130    -0.00000    -0.00000
           CX2             -0.00000    -0.00000     0.00000    -0.03866    -0.00000
           CY2              0.00000    -0.00000    -0.00000     0.00000    -0.03520
           CZ2             -0.06161     0.00281    -0.04200    -0.00000     0.00000
           CX3             -0.00000     0.00000    -0.00000    -0.04213     0.01593
           CY3             -0.00000    -0.00000     0.00000     0.01594    -0.06053
           CZ3             -0.09247    -0.15311    -0.10258     0.00000     0.00000
           CX4             -0.00000    -0.00000    -0.00000    -0.03607    -0.00149
           CY4             -0.00000    -0.00000     0.00000    -0.00149    -0.03780
           CZ4             -0.06161    -0.03778     0.01857     0.00000     0.00000
           CX5              0.00000     0.00000    -0.00000    -0.06974    -0.00001
           CY5              0.00000    -0.00000    -0.00000     0.00000    -0.03293
           CZ5             -0.09247    -0.01228     0.18388     0.00000    -0.00000
           CX6             -0.00000     0.00000    -0.00000    -0.03607     0.00148
           CY6              0.00000    -0.00000    -0.00000     0.00149    -0.03780
           CZ6             -0.06161     0.03497     0.02343    -0.00000    -0.00000
           HX7              0.00000    -0.00000    -0.00000    -0.05771    -0.00752
           HY7             -0.00000    -0.00000    -0.00000    -0.00750    -0.06636
           HZ7             -0.02173     0.26621    -0.13087    -0.00000    -0.00000
           HX8              0.00000     0.00000    -0.00000    -0.05771     0.00751
           HY8              0.00000    -0.00000     0.00000     0.00751    -0.06636
           HZ8             -0.02173    -0.24644    -0.16511     0.00000     0.00000
           HX9              0.00000     0.00000    -0.00000    -0.07070    -0.00001
           HY9              0.00000    -0.00000    -0.00000     0.00000    -0.05338
           HZ9             -0.02173    -0.01977     0.29598     0.00000    -0.00000
           FX10            -0.00000    -0.00000     0.00000    -0.04626    -0.00000
           FY10             0.00000     0.00000     0.00000    -0.00001     0.16445
           FZ10             0.09856    -0.00590     0.08829     0.00000    -0.00000
           FX11             0.00000    -0.00000    -0.00000     0.11178    -0.09124
           FY11            -0.00000    -0.00000     0.00000    -0.09124     0.00641
           FZ11             0.09856     0.07941    -0.03904    -0.00000    -0.00000
           FX12             0.00000     0.00000     0.00000     0.11177     0.09126
           FY12             0.00000     0.00000    -0.00000     0.09124     0.00642
           FZ12             0.09856    -0.07351    -0.04925     0.00000     0.00000

                              6 A`        7 A`        8 A`        9 A`       10 A``
 Wavenumbers [cm-1]          499.35      499.37      548.14      580.32      619.49
 Intensities [km/mol]          7.94        7.95        0.00        0.00        0.00
 Intensities [relative]        4.28        4.28        0.00        0.00        0.00
           CX1             -0.03064    -0.06042    -0.07535     0.00289     0.00000
           CY1             -0.06044    -0.10038     0.04351     0.00501    -0.00000
           CZ1             -0.00000    -0.00000     0.00000     0.00000     0.02983
           CX2              0.08270    -0.00002     0.00000     0.06705     0.00000
           CY2             -0.00002    -0.08688     0.08839     0.00000     0.00000
           CZ2              0.00000    -0.00000     0.00000    -0.00000    -0.00150
           CX3             -0.03062     0.06043     0.07535     0.00289    -0.00000
           CY3              0.06040    -0.10041     0.04351    -0.00501     0.00000
           CZ3             -0.00000     0.00000    -0.00000     0.00000    -0.02958
           CX4             -0.04447     0.07344     0.07655    -0.03352    -0.00000
           CY4              0.07344     0.04028    -0.04419    -0.05806    -0.00000
           CZ4             -0.00000     0.00000     0.00000     0.00000     0.18082
           CX5             -0.13528     0.00003    -0.00000    -0.00579    -0.00000
           CY5              0.00000     0.00425    -0.08701    -0.00000     0.00000
           CZ5             -0.00000    -0.00000    -0.00000    -0.00000    -0.00025
           CX6             -0.04450    -0.07342    -0.07655    -0.03352    -0.00000
           CY6             -0.07342     0.04031    -0.04419     0.05806     0.00000
           CZ6             -0.00000    -0.00000    -0.00000     0.00000    -0.17932
           HX7             -0.14583     0.00678    -0.20950     0.00482    -0.00000
           HY7              0.00674    -0.13802     0.12096     0.00837     0.00000
           HZ7             -0.00000     0.00000     0.00000     0.00000     0.27857
           HX8             -0.14583    -0.00672     0.20950     0.00482     0.00000
           HY8             -0.00679    -0.13801     0.12096    -0.00837     0.00000
           HZ8             -0.00000    -0.00000    -0.00000     0.00000    -0.27626
           HX9             -0.13411     0.00003    -0.00000    -0.00967    -0.00000
           HY9             -0.00003    -0.14970    -0.24185    -0.00000     0.00000
           HZ9              0.00000    -0.00000     0.00000    -0.00000    -0.00231
           FX10             0.11033    -0.00002    -0.00000     0.12115     0.00000
           FY10            -0.00000    -0.00980    -0.06868    -0.00000    -0.00000
           FZ10            -0.00000     0.00000    -0.00000     0.00000     0.00029
           FX11             0.02024     0.05201    -0.05946    -0.06057    -0.00000
           FY11             0.05204     0.08030     0.03433    -0.10492    -0.00000
           FZ11             0.00000    -0.00000    -0.00000    -0.00000    -0.03444
           FX12             0.02022    -0.05202     0.05946    -0.06057    -0.00000
           FY12            -0.05201     0.08032     0.03433     0.10492     0.00000
           FZ12             0.00000     0.00000     0.00000    -0.00000     0.03416

                             11 A``      12 A``      13 A``      14 A``      15 A``
 Wavenumbers [cm-1]          619.49      657.53      836.02      856.33      856.33
 Intensities [km/mol]          0.00        3.49      105.15        0.00        0.00
 Intensities [relative]        0.00        1.88       56.61        0.00        0.00
           CX1              0.00000     0.00000     0.00000     0.00000    -0.00000
           CY1             -0.00000     0.00000    -0.00000    -0.00000     0.00000
           CZ1             -0.01694    -0.08288    -0.06901     0.09919     0.06039
           CX2              0.00000     0.00000     0.00000     0.00000    -0.00000
           CY2             -0.00000    -0.00000    -0.00000    -0.00000    -0.00000
           CZ2              0.20792     0.11717     0.05155     0.00147    -0.06304
           CX3              0.00000     0.00000     0.00000    -0.00000    -0.00000
           CY3              0.00000    -0.00000     0.00000     0.00000    -0.00000
           CZ3             -0.01737    -0.08288    -0.06901    -0.10190     0.05571
           CX4             -0.00000    -0.00000     0.00000    -0.00000    -0.00000
           CY4             -0.00000    -0.00000     0.00000    -0.00000     0.00000
           CZ4             -0.10267     0.11717     0.05155     0.05386     0.03279
           CX5              0.00000     0.00000     0.00000    -0.00000    -0.00000
           CY5              0.00000     0.00000     0.00000     0.00000     0.00000
           CZ5              0.03430    -0.08288    -0.06901     0.00270    -0.11610
           CX6             -0.00000    -0.00000     0.00000     0.00000    -0.00000
           CY6              0.00000     0.00000    -0.00000    -0.00000    -0.00000
           CZ6             -0.10526     0.11717     0.05155    -0.05532     0.03025
           HX7              0.00000     0.00000     0.00000    -0.00000    -0.00000
           HY7             -0.00000    -0.00000    -0.00000     0.00000     0.00000
           HZ7             -0.15817    -0.29073     0.48800    -0.57250    -0.34854
           HX8              0.00000     0.00000     0.00000     0.00000    -0.00000
           HY8              0.00000     0.00000     0.00000     0.00000    -0.00000
           HZ8             -0.16216    -0.29073     0.48800     0.58809    -0.32153
           HX9              0.00000     0.00000     0.00000    -0.00000    -0.00000
           HY9              0.00000     0.00000     0.00000     0.00000     0.00000
           HZ9              0.32033    -0.29073     0.48799    -0.01559     0.67007
           FX10             0.00000     0.00000    -0.00000     0.00000     0.00000
           FY10            -0.00000     0.00000     0.00000    -0.00000    -0.00000
           FZ10            -0.03961    -0.00625    -0.01485    -0.00034     0.01474
           FX11            -0.00000    -0.00000    -0.00000     0.00000     0.00000
           FY11            -0.00000    -0.00000     0.00000    -0.00000     0.00000
           FZ11             0.01956    -0.00625    -0.01485    -0.01259    -0.00766
           FX12            -0.00000    -0.00000    -0.00000    -0.00000     0.00000
           FY12             0.00000     0.00000    -0.00000     0.00000    -0.00000
           FZ12             0.02005    -0.00625    -0.01485     0.01293    -0.00707

                             16 A`       17 A`       18 A`       19 A`       20 A` 
 Wavenumbers [cm-1]         1013.81     1013.83     1024.50     1146.86     1146.90
 Intensities [km/mol]         47.83       47.87        0.00       97.01       96.98
 Intensities [relative]       25.75       25.77        0.00       52.23       52.21
           CX1              0.07330    -0.09739    -0.07917    -0.04271     0.02514
           CY1             -0.09730    -0.03922    -0.13729     0.02514    -0.01371
           CZ1              0.00000    -0.00000     0.00000    -0.00000    -0.00000
           CX2              0.04550     0.00000     0.01784    -0.11814    -0.00000
           CY2             -0.00000     0.01259    -0.00000     0.00000    -0.02117
           CZ2             -0.00000    -0.00000    -0.00000     0.00000     0.00000
           CX3              0.07329     0.09740    -0.07917    -0.04271    -0.02514
           CY3              0.09731    -0.03921     0.13729    -0.02514    -0.01371
           CZ3              0.00000     0.00000     0.00000    -0.00000     0.00000
           CX4              0.02084     0.01426    -0.00890    -0.04538    -0.04208
           CY4              0.01427     0.03732    -0.01541    -0.04202    -0.09386
           CZ4              0.00000    -0.00000     0.00000    -0.00000    -0.00000
           CX5             -0.09557    -0.00000     0.15839     0.00084     0.00000
           CY5             -0.00001     0.12951    -0.00000     0.00000    -0.05714
           CZ5             -0.00000    -0.00000    -0.00000     0.00000    -0.00000
           CX6              0.02084    -0.01426    -0.00890    -0.04539     0.04207
           CY6             -0.01427     0.03732     0.01541     0.04202    -0.09386
           CZ6              0.00000     0.00000     0.00000    -0.00000     0.00000
           HX7              0.33656    -0.25236    -0.08305     0.41366    -0.24009
           HY7             -0.25229     0.04503    -0.14443    -0.23962     0.13719
           HZ7             -0.00000     0.00000    -0.00000     0.00000     0.00000
           HX8              0.33654     0.25239    -0.08305     0.41365     0.24012
           HY8              0.25229     0.04506     0.14443     0.23961     0.13720
           HZ8             -0.00000    -0.00000    -0.00000     0.00000    -0.00000
           HX9             -0.10078    -0.00000     0.16650    -0.00139    -0.00000
           HY9             -0.00002     0.48198    -0.00000    -0.00002     0.55164
           HZ9              0.00000     0.00000     0.00000    -0.00000     0.00000
           FX10            -0.06538    -0.00000    -0.00079     0.08776     0.00000
           FY10             0.00000    -0.01311     0.00000    -0.00000     0.00673
           FZ10             0.00000     0.00000     0.00000    -0.00000    -0.00000
           FX11            -0.02618    -0.02264     0.00035     0.02698     0.03509
           FY11            -0.02263    -0.05234     0.00063     0.03509     0.06748
           FZ11            -0.00000     0.00000    -0.00000     0.00000     0.00000
           FX12            -0.02618     0.02264     0.00035     0.02699    -0.03509
           FY12             0.02264    -0.05234    -0.00063    -0.03509     0.06748
           FZ12            -0.00000    -0.00000    -0.00000     0.00000    -0.00000

                             21 A`       22 A`       23 A`       24 A`       25 A` 
 Wavenumbers [cm-1]         1203.31     1415.07     1484.01     1513.03     1513.06
 Intensities [km/mol]          0.00        0.00        0.00       68.19       68.17
 Intensities [relative]        0.00        0.00        0.00       36.71       36.70
           CX1             -0.03112     0.00746     0.10763    -0.02502    -0.06497
           CY1              0.01796     0.01291    -0.06216     0.06494    -0.04996
           CZ1              0.00000    -0.00000    -0.00000    -0.00000    -0.00000
           CX2              0.00000     0.15143    -0.00000     0.12104    -0.00001
           CY2              0.06941     0.00000     0.10894     0.00001     0.14381
           CZ2             -0.00000     0.00000     0.00000     0.00000     0.00000
           CX3              0.03112     0.00746    -0.10763    -0.02502     0.06497
           CY3              0.01796    -0.01291    -0.06216    -0.06495    -0.04995
           CZ3             -0.00000     0.00000     0.00000    -0.00000     0.00000
           CX4              0.06008    -0.07570     0.09428    -0.07762    -0.11471
           CY4             -0.03481    -0.13113    -0.05446     0.11469    -0.05480
           CZ4              0.00000    -0.00000    -0.00000    -0.00000    -0.00000
           CX5             -0.00000    -0.01491    -0.00000     0.08745    -0.00001
           CY5             -0.03597    -0.00000     0.12431     0.00000     0.06248
           CZ5             -0.00000     0.00000     0.00000     0.00000    -0.00000
           CX6             -0.06008    -0.07570    -0.09428    -0.07761     0.11472
           CY6             -0.03481     0.13113    -0.05446    -0.11470    -0.05478
           CZ6             -0.00000     0.00000     0.00000    -0.00000     0.00000
           HX7              0.43813     0.01419    -0.06227     0.22253     0.06514
           HY7             -0.25296     0.02460     0.03593    -0.06515    -0.14729
           HZ7             -0.00000     0.00000     0.00000     0.00000    -0.00000
           HX8             -0.43813     0.01419     0.06227     0.22252    -0.06516
           HY8             -0.25296    -0.02460     0.03593     0.06513    -0.14730
           HZ8              0.00000    -0.00000    -0.00000    -0.00000     0.00000
           HX9             -0.00000    -0.02841    -0.00000     0.10967    -0.00001
           HY9              0.50677     0.00000    -0.07203    -0.00002    -0.26018
           HZ9              0.00000     0.00000     0.00000    -0.00000    -0.00000
           FX10            -0.00000    -0.05355     0.00000    -0.03279     0.00000
           FY10            -0.00931    -0.00000     0.00248    -0.00000    -0.01181
           FZ10             0.00000    -0.00000    -0.00000    -0.00000    -0.00000
           FX11            -0.00803     0.02677     0.00216     0.00066     0.01930
           FY11             0.00471     0.04637    -0.00124    -0.01931     0.02163
           FZ11            -0.00000     0.00000     0.00000     0.00000     0.00000
           FX12             0.00803     0.02677    -0.00216     0.00066    -0.01930
           FY12             0.00471    -0.04637    -0.00124     0.01931     0.02163
           FZ12             0.00000    -0.00000    -0.00000     0.00000    -0.00000

                             26 A`       27 A`       28 A`       29 A`       30 A` 
 Wavenumbers [cm-1]         1688.23     1688.23     3277.84     3279.11     3279.21
 Intensities [km/mol]        185.74      185.73        0.01        3.37        3.36
 Intensities [relative]      100.00       99.99        0.00        1.81        1.81
           CX1             -0.04054     0.12779     0.02517    -0.03010    -0.01578
           CY1              0.08045    -0.04102     0.04364    -0.05164    -0.02819
           CZ1              0.00000     0.00000    -0.00000    -0.00000    -0.00000
           CX2             -0.00022    -0.09441     0.00370     0.00000    -0.00211
           CY2             -0.13350     0.00031    -0.00000     0.00542     0.00000
           CZ2             -0.00000    -0.00000     0.00000    -0.00000    -0.00000
           CX3              0.04113     0.12760     0.02517     0.03010    -0.01577
           CY3              0.08063     0.04065    -0.04364    -0.05164     0.02818
           CZ3             -0.00000     0.00000    -0.00000     0.00000     0.00000
           CX4              0.01663    -0.12377    -0.00196    -0.00333     0.00341
           CY4             -0.10415     0.01716    -0.00297    -0.00035    -0.00347
           CZ4              0.00000     0.00000    -0.00000    -0.00000     0.00000
           CX5              0.00013     0.05696    -0.04577     0.00000    -0.07112
           CY5              0.15128    -0.00035    -0.00000     0.00050     0.00000
           CZ5             -0.00000    -0.00000     0.00000     0.00000    -0.00000
           CX6             -0.01720    -0.12370    -0.00196     0.00333     0.00341
           CY6             -0.10423    -0.01668     0.00297    -0.00035     0.00347
           CZ6             -0.00000     0.00000    -0.00000     0.00000     0.00000
           HX7              0.09530    -0.09894    -0.28316     0.33679     0.18155
           HY7              0.01181     0.09550    -0.49050     0.58287     0.31529
           HZ7             -0.00000     0.00000     0.00000     0.00000     0.00000
           HX8             -0.09576    -0.09850    -0.28316    -0.33680     0.18153
           HY8              0.01137    -0.09556     0.49050     0.58289    -0.31527
           HZ8              0.00000     0.00000    -0.00000    -0.00000    -0.00000
           HX9              0.00015     0.06673     0.51445    -0.00002     0.80103
           HY9             -0.15396     0.00035    -0.00000    -0.00048    -0.00000
           HZ9              0.00000     0.00000    -0.00000     0.00000     0.00000
           FX10             0.00003     0.01239    -0.00043    -0.00000     0.00032
           FY10             0.00468    -0.00001     0.00000    -0.00023    -0.00000
           FZ10             0.00000     0.00000    -0.00000    -0.00000     0.00000
           FX11             0.00335     0.00660     0.00021     0.00025    -0.00008
           FY11             0.01047     0.00331     0.00035     0.00020     0.00026
           FZ11            -0.00000     0.00000     0.00000     0.00000    -0.00000
           FX12            -0.00332     0.00661     0.00021    -0.00025    -0.00008
           FY12             0.01045    -0.00336    -0.00035     0.00020    -0.00026
           FZ12             0.00000     0.00000    -0.00000    -0.00000    -0.00000


 Normal Modes of low/zero frequencies

                                  1           2           3           4           5
 Wavenumbers [cm-1]            0.00        0.00        0.00        0.00        0.00
 Intensities [km/mol]          0.00        0.00        0.00        0.00        0.00
 Intensities [relative]        0.00        0.00        0.00        0.00        0.00
           CX1              0.10075     0.00003     0.00002    -0.00000     0.00002
           CY1             -0.01479     0.05652    -0.03125     0.00116    -0.00459
           CZ1             -0.00004     0.06767     0.00403    -0.03502     0.07687
           CX2              0.07513     0.01669     0.03391     0.01108     0.00170
           CY2             -0.02880     0.06563    -0.01271     0.00723    -0.00368
           CZ2             -0.00003     0.08904     0.00517    -0.01762     0.00366
           CX3              0.04952     0.03335     0.06779     0.02216     0.00337
           CY3             -0.01479     0.05652    -0.03125     0.00116    -0.00459
           CZ3             -0.00002     0.07246    -0.00911     0.05063    -0.03574
           CX4              0.05019     0.03292     0.06690     0.02187     0.00333
           CY4              0.01440     0.03754    -0.06986    -0.01147    -0.00651
           CZ4             -0.00000     0.03288    -0.02500     0.10246     0.00094
           CX5              0.07513     0.01669     0.03391     0.01108     0.00170
           CY5              0.02957     0.02767    -0.08994    -0.01803    -0.00750
           CZ5             -0.00001     0.00999    -0.02696     0.08828     0.07408
           CX6              0.10008     0.00047     0.00091     0.00029     0.00006
           CY6              0.01440     0.03754    -0.06986    -0.01147    -0.00651
           CZ6             -0.00003     0.02821    -0.01221     0.01905     0.11060
           HX7              0.12049    -0.01281    -0.02610    -0.00855    -0.00127
           HY7             -0.02619     0.06393    -0.01617     0.00610    -0.00385
           HZ7             -0.00005     0.08125     0.01536    -0.08871     0.10652
           HX8              0.02978     0.04619     0.09391     0.03071     0.00467
           HY8             -0.02619     0.06393    -0.01617     0.00610    -0.00385
           HZ8             -0.00001     0.08975    -0.00789     0.06297    -0.09290
           HX9              0.07513     0.01669     0.03391     0.01108     0.00170
           HY9              0.05237     0.01284    -0.12010    -0.02790    -0.00899
           HZ9              0.00000    -0.02087    -0.03951     0.12964     0.10158
           FX10             0.07513     0.01669     0.03391     0.01108     0.00170
           FY10            -0.05692     0.08392     0.02449     0.01940    -0.00184
           FZ10            -0.00005     0.12711     0.02065    -0.06863    -0.03026
           FX11             0.02584     0.04875     0.09912     0.03241     0.00492
           FY11             0.02846     0.02839    -0.08846    -0.01755    -0.00743
           FZ11             0.00002     0.01612    -0.03898     0.16869    -0.03563
           FX12             0.12443    -0.01537    -0.03131    -0.01025    -0.00153
           FY12             0.02846     0.02839    -0.08846    -0.01755    -0.00743
           FZ12            -0.00003     0.00689    -0.01371     0.00383     0.18110

                                  6
 Wavenumbers [cm-1]            0.00
 Intensities [km/mol]          0.00
 Intensities [relative]        0.00
           CX1              0.00000
           CY1             -0.06339
           CZ1              0.05214
           CX2             -0.01928
           CY2             -0.07394
           CZ2              0.07625
           CX3             -0.03856
           CY3             -0.06339
           CZ3              0.07262
           CX4             -0.03806
           CY4             -0.04142
           CZ4              0.04345
           CX5             -0.01928
           CY5             -0.03000
           CZ5              0.01845
           CX6             -0.00050
           CY6             -0.04142
           CZ6              0.02351
           HX7              0.01486
           HY7             -0.07197
           HZ7              0.05553
           HX8             -0.05342
           HY8             -0.07197
           HZ8              0.09180
           HX9             -0.01928
           HY9             -0.01283
           HZ9             -0.00412
           FX10            -0.01928
           FY10            -0.09511
           FZ10             0.10410
           FX11            -0.05639
           FY11            -0.03083
           FZ11             0.03926
           FX12             0.01783
           FY12            -0.03083
           FZ12            -0.00015


 Frequencies dumped to record   5400.2

 Zero point energy:  0.07660889 [H]    16813.71 [1/CM]      201.14 [KJ/MOL]

 Recomputing wavefunction at initial geometry


 **********************************************************************************************************************************
 DATASETS  * FILE   NREC   LENGTH (MB)   RECORD NAMES
              1      20      131.72       500      610      700      900      950      970     1000      129      960     1100   
                                          VAR    BASINP    GEOM    SYMINP    ZMAT    AOBASIS   BASIS     P2S    ABASIS      S 
                                         1400     1410     1200     1210     1080     1600     1650     1700     1380     5200   
                                           T        V       H0       H01     AOSYM     SMH    MOLCAS    OPER     JKOP      MP2  

              2       9        4.22       700     1000      520     2100     4100     9001     5300     5450     5400   
                                         GEOM     BASIS   MCVARS     RHF     CPHF    DEN_MP2   HESS     NMOD     FREQ   

 PROGRAMS   *        TOTAL      FREQ      OPTG       MP2    HF-SCF       INT
 CPU TIMES  *       893.07    791.72     84.90     12.20      1.83      2.33
 REAL TIME  *      1031.28 SEC
 DISK USED  *       140.27 MB (local),      768.33 MB (total)
 SF USED    *       265.48 MB
 GA USED    *         0.00 MB       (max)       0.00 MB       (current)
 **********************************************************************************************************************************

 MP2/cc-pVDZ energy=   -528.604606322922

       OPTG(MP2)             MP2          HF-SCF
   -528.60460632   -528.60337910   -527.28801102
 **********************************************************************************************************************************
 Molpro calculation terminated
