
 Primary working directories    : /tmp/koushik/molpro.jQw1kwnzX8
 Secondary working directories  : /tmp/koushik/molpro.jQw1kwnzX8
 Wavefunction directory         : /home/koushik/wfu/
 Main file repository           : /tmp/koushik/molpro.jQw1kwnzX8/

 id        : iacsdirector

 Nodes     nprocs
 koushik      1

 Using customized tuning parameters: mindgm=1; mindgv=20; mindgc=4; mindgr=1; noblas=0; minvec=7
 default implementation of scratch files=df  


 Variables initialized (930), CPU time= 0.00 sec
                                                                       !Geometry optimization of C6H3F3 using basis set aug-cc-pvTZ
 memory,100,m
 
 file,2,hess_c6h3f3_mp2.wfu,new;
 
 GPRINT,DISTANCE,ANGLES,ORBITAL,ORBEN,CIVECTOR,REF;
 
 
 symmetry, nosym
 
 geometry={
 N
 O1,N,rno1
 O2,N,rno2,O1,alph
 }
 
 rno1 = 1.2126 ANGSTROM
 rno2 = 1.2126 ANGSTROM
 alph = 133.7 DEGREE
 
 
 hf
 
 optg;coord,3n
 
 {frequencies
 print,hessian}
 
 Commands  initialized (760), CPU time= 0.01 sec, 617 directives.
 Default parameters read. Elapsed time= 0.03 sec

 Checking input...
 Passed
1


                                         ***  PROGRAM SYSTEM MOLPRO  ***
                                       Copyright, TTI GmbH Stuttgart, 2015
                                    Version 2018.2 linked Nov 10 2018 21:55:55


 **********************************************************************************************************************************
 LABEL *                                                                                 
  64 bit serial version                                                                  DATE: 18-Jan-19          TIME: 14:46:14  
 **********************************************************************************************************************************

 SHA1:             5ea806b172b3d20b18658228ad0b1c212d33fc17
 **********************************************************************************************************************************

 Variable memory set to  100000000 words,  buffer space 



 Permanent file  2  hess_c6h3f3_mp2.wfu              assigned.  Implementation=df  



 **********************************************************************************************************************************
 DATASETS  * FILE   NREC   LENGTH (MB)   RECORD NAMES
              2       1        0.03       500   
                                          VAR  

 PROGRAMS   *        TOTAL      FILE
 CPU TIMES  *         0.07      0.00
 REAL TIME  *         0.06 SEC
 DISK USED  *         0.09 MB
 **********************************************************************************************************************************

 ZSYMEL=NOSYM

 SETTING RNO1           =         1.21260000  ANGSTROM                        
 SETTING RNO2           =         1.21260000  ANGSTROM                        
 SETTING ALPH           =       133.70000000  DEGREE                          


 Recomputing integrals since basis changed


 Using spherical harmonics

 Library entry N      S cc-pVDZ              selected for orbital group  1
 Library entry N      P cc-pVDZ              selected for orbital group  1
 Library entry N      D cc-pVDZ              selected for orbital group  1
 Library entry O      S cc-pVDZ              selected for orbital group  2
 Library entry O      P cc-pVDZ              selected for orbital group  2
 Library entry O      D cc-pVDZ              selected for orbital group  2


 PROGRAM * SEWARD (Integral evaluation for generally contracted gaussian basis sets)     Author: Roland Lindh, 1990

 Geometry written to block  1 of record 700

 Orientation using atomic masses  
 Molecule type: Asymmetric top
 Rotational constants:      12.0348658    228.2593499     12.7047159 GHz  (calculated with average atomic masses)

 Point group  C1  



 ATOMIC COORDINATES

 NR  ATOM    CHARGE       X              Y              Z

   1  N       7.00    0.000000000    0.000000000   -0.626595438
   2  O1      8.00    0.000000000    2.106968954    0.274276983
   3  O2      8.00    0.000000000   -2.106968954    0.274276983

 Bond lengths in Bohr (Angstrom)

 1-2  2.291481899  1-3  2.291481899
     ( 1.212600000)     ( 1.212600000)

 Bond angles

  2-1-3  133.70000000

 NUCLEAR CHARGE:                   23
 NUMBER OF PRIMITIVE AOS:          81
 NUMBER OF SYMMETRY AOS:           78
 NUMBER OF CONTRACTIONS:           42   (   42A   )
 NUMBER OF CORE ORBITALS:           3   (    3A   )
 NUMBER OF VALENCE ORBITALS:       12   (   12A   )


 NUCLEAR REPULSION ENERGY   64.06436213

 EXTRA SYMMETRY OF AOS IN SYMMETRY 1:   1 1 1 2 1 1 2 1 1 1   2 2 1 1 1 1 1 2 1 1   2 1 1 1 2 2 1 1 1 1   1 2 1 1 2 1 1 1 2 2
                                        1 1

 Eigenvalues of metric

         1 0.745E-02 0.981E-02 0.406E-01 0.865E-01 0.111E+00 0.114E+00 0.128E+00 0.148E+00


 Contracted 2-electron integrals neglected if value below      1.0D-11
 AO integral compression algorithm  1   Integral accuracy      1.0D-11

     1.311 MB (compressed) written to integral file ( 35.0%)


 NUMBER OF SORTED TWO-ELECTRON INTEGRALS:     408156.     BUFFER LENGTH:  32768
 NUMBER OF SEGMENTS:   1  SEGMENT LENGTH:     408156      RECORD LENGTH: 524288

 Memory used in sort:       0.97 MW

 SORT1 READ      544483. AND WROTE      187816. INTEGRALS IN      1 RECORDS. CPU TIME:     0.00 SEC, REAL TIME:     0.00 SEC
 SORT2 READ      187816. AND WROTE      408156. INTEGRALS IN      5 RECORDS. CPU TIME:     0.02 SEC, REAL TIME:     0.02 SEC

 FILE SIZES:   FILE 1:    31.3 MBYTE,  FILE 4:     4.2 MBYTE,   TOTAL:     35.6 MBYTE

 OPERATOR DM      FOR CENTER  0  COORDINATES:    0.000000    0.000000    0.000000


 **********************************************************************************************************************************
 DATASETS  * FILE   NREC   LENGTH (MB)   RECORD NAMES
              1      19       31.02       500      610      700      900      950      970     1000      129      960     1100   
                                          VAR    BASINP    GEOM    SYMINP    ZMAT    AOBASIS   BASIS     P2S    ABASIS      S 
                                         1400     1410     1200     1210     1080     1600     1650     1300     1700   
                                           T        V       H0       H01     AOSYM     SMH    MOLCAS    ERIS     OPER   

              2       5       12.30       500      610      700     1000      520   
                                          VAR    BASINP    GEOM     BASIS   MCVARS    

 PROGRAMS   *        TOTAL       INT      FILE
 CPU TIMES  *         0.26      0.19      0.00
 REAL TIME  *         0.29 SEC
 DISK USED  *        47.91 MB
 **********************************************************************************************************************************


 PROGRAM * RHF-SCF (OPEN SHELL)       Authors: W. Meyer, H.-J. Werner


 NUMBER OF ELECTRONS:      12+   11-    SPACE SYMMETRY=1    SPIN SYMMETRY: Doublet 
 CONVERGENCE THRESHOLDS:    1.00E-06 (Density)    1.00E-07 (Energy)
 MAX. NUMBER OF ITERATIONS:       60
 INTERPOLATION TYPE:            DIIS
 INTERPOLATION STEPS:              2 (START)      1 (STEP)
 LEVEL SHIFTS:                 -0.60 (CLOSED) -0.30 (OPEN) 



 Orbital guess generated from atomic densities. Full valence occupancy:   12

 Molecular orbital dump at record        2100.2

 Initial alpha occupancy:  12
 Initial beta  occupancy:  11
 Wave function symmetry:    1

 ITERATION    DDIFF          GRAD             ENERGY        2-EL.EN.            DIPOLE MOMENTS         DIIS   ORB.
    1      0.000D+00      0.000D+00      -203.90851712    274.199694    0.00000    0.00000   -0.72527    0    start
    2      0.000D+00      0.204D-01      -204.01995913    276.458258   -0.00000   -0.00000   -0.15861    1    diag,B
    3      0.372D-01      0.677D-02      -204.03208947    276.725184    0.00000    0.00000   -0.30496    2    diag,B
    4      0.101D-01      0.100D-02      -204.03275088    276.734231    0.00000   -0.00000   -0.29852    3    diag,B
    5      0.165D-02      0.462D-03      -204.03306230    276.745918    0.00000    0.00000   -0.30359    4    diag,B
    6      0.135D-02      0.180D-03      -204.03314225    276.749719    0.00000   -0.00000   -0.30923    5    diag,B
    7      0.561D-03      0.906D-04      -204.03317165    276.753760    0.00000    0.00000   -0.31454    6    fixocc
    8      0.342D-03      0.421D-04      -204.03317872    276.755013    0.00000   -0.00000   -0.31750    7    diag,B
    9      0.181D-03      0.179D-04      -204.03317971    276.755234    0.00000    0.00000   -0.31849    8    diag,B
   10      0.869D-04      0.547D-05      -204.03317976    276.755171    0.00000   -0.00000   -0.31859    9    orth
   11      0.237D-04      0.151D-05      -204.03317976    276.755203    0.00000    0.00000   -0.31857    9    diag,B
   12      0.488D-05      0.556D-06      -204.03317976    276.755199   -0.00000   -0.00000   -0.31856    9    diag,B
   13      0.175D-05      0.155D-06      -204.03317976    276.755198   -0.00000    0.00000   -0.31856    9    diag,B
   14      0.427D-06      0.492D-07      -204.03317976    276.755198   -0.00000   -0.00000   -0.31856    0    orth

 Final alpha occupancy:  12
 Final beta  occupancy:  11

 !RHF STATE  1.1 Energy              -204.033179758416
 Nuclear energy                        64.06436213
 One-electron energy                 -406.47514099
 Two-electron energy                  138.37759910
 Virial quotient                       -1.00193406
 !RHF STATE  1.1 Dipole moment         -0.00000000    -0.00000000    -0.31855500
 Dipole moment /Debye                  -0.00000000    -0.00000000    -0.80963303

 ELECTRON ORBITALS
 =================

  Orbital  Occupation    Energy     Coefficients
    1.1     2.00000   -20.68274     2 1s    0.70755     3 1s   -0.70755
    2.1     2.00000   -20.68268     2 1s    0.70747     3 1s    0.70747
    3.1     2.00000   -15.87388     1 1s    1.00023
    4.1     2.00000    -1.64337     1 1s    0.69328     2 1s    0.48375     3 1s    0.48375
    5.1     2.00000    -1.46712     1 2py   0.44671     2 1s    0.60688     3 1s   -0.60688
    6.1     2.00000    -0.91913     1 1s   -0.69480     2 1s    0.47334     2 2py   0.30789     3 1s    0.47334     3 2py  -0.30789
    7.1     2.00000    -0.76669     1 2py  -0.58509     2 1s    0.30271     2 2py   0.43242     2 2pz   0.27779     3 1s   -0.30271
                                    3 2py   0.43242     3 2pz  -0.27779
    8.1     2.00000    -0.76533     1 2pz   0.56428     2 2py  -0.31124     2 2pz   0.40230     3 2py   0.31124     3 2pz   0.40230
    9.1     2.00000    -0.74371     1 2px   0.59949     2 2px   0.47455     3 2px   0.47455
   10.1     2.00000    -0.54284     2 2py  -0.38616     2 2pz   0.57351     3 2py  -0.38616     3 2pz  -0.57351
   11.1     2.00000    -0.51936     2 2px   0.66195     3 2px  -0.66195
   12.1     1.00000    -0.50625     1 1s   -0.29404     1 1s   -0.28347     1 2pz   0.73803     2 2pz  -0.52676     3 2pz  -0.52676


 HOMO     12.1    -0.506246 =     -13.7757eV
 LUMO     13.1     0.069472 =       1.8904eV
 LUMO-HOMO         0.575718 =      15.6661eV


 **********************************************************************************************************************************
 DATASETS  * FILE   NREC   LENGTH (MB)   RECORD NAMES
              1      19       31.02       500      610      700      900      950      970     1000      129      960     1100   
                                          VAR    BASINP    GEOM    SYMINP    ZMAT    AOBASIS   BASIS     P2S    ABASIS      S 
                                         1400     1410     1200     1210     1080     1600     1650     1300     1700   
                                           T        V       H0       H01     AOSYM     SMH    MOLCAS    ERIS     OPER   

              2       6       14.87       500      610      700     1000      520     2100   
                                          VAR    BASINP    GEOM     BASIS   MCVARS     RHF  

 PROGRAMS   *        TOTAL    HF-SCF       INT      FILE
 CPU TIMES  *         0.38      0.12      0.19      0.00
 REAL TIME  *         0.47 SEC
 DISK USED  *        47.91 MB
 **********************************************************************************************************************************


 PROGRAM * OPT (Geometry optimization)     Authors: F. Eckert and H.-J. Werner


 BFGS update of hessian

 *** Long output written to logfile /home/koushik/CODES/ADT-Program Test/MolproTest/OPT/optg_tfb_mp2_aug-cc-pVTZ.log ***


 Geometry optimization using default procedure for command HF-SCF

 Geometry written to block  1 of record 701

 Making model hessian for cartesian coordinates

 Entering Rational Function Geometry Optimization

 ITER.   ENERGY(OLD)    ENERGY(NEW)      DE          GRADMAX     GRADNORM    GRADRMS     STEPMAX     STEPLEN     STEPRMS   CPU-time
   1  -204.03317976  -204.04505857    -0.01187881  0.17106109  0.17211832  0.05737277  0.11186481  0.11852433  0.06843005      0.54
   2  -204.04505857  -204.04532012    -0.00026155  0.02662938  0.02688972  0.00896324  0.02050860  0.02132076  0.01230954      1.04
   3  -204.04532012  -204.04534329    -0.00002317  0.00469415  0.00597486  0.00199162  0.00661090  0.00675438  0.00389965      1.54
   4  -204.04534329  -204.04534580    -0.00000251  0.00148207  0.00151167  0.00050389  0.00338185  0.00338650  0.00195520      2.04
   5  -204.04534580  -204.04534580    -0.00000000  0.00004884  0.00005146  0.00001715  0.00005169  0.00006301  0.00003638      2.50

 END OF GEOMETRY OPTIMIZATION.

 Current geometry (xyz format, in Angstrom)

    3
 HF-SCF000/   ENERGY=-204.04534580
 N          0.0000000000       -0.0000000000       -0.2978856418
 O          0.0000000000        1.0748435463        0.1282939366
 O          0.0000000000       -1.0748435463        0.1282939366

 **********************************************************************************************************************************

 Geometry written to block  1 of record 701


 **********************************************************************************************************************************
 DATASETS  * FILE   NREC   LENGTH (MB)   RECORD NAMES
              1      20       31.25       500      610      700      900      701      950      970     1000      129      960   
                                          VAR    BASINP    GEOM    SYMINP    GEOM     ZMAT    AOBASIS   BASIS     P2S    ABASIS    
                                         1100     1400     1410     1200     1210     1080     1600     1650     1300     1700   
                                           S        T        V       H0       H01     AOSYM     SMH    MOLCAS    ERIS     OPER   

              2       7       14.92       500      610      700     1000      520     2100      701   
                                          VAR    BASINP    GEOM     BASIS   MCVARS     RHF     GEOM   

 PROGRAMS   *        TOTAL      OPTG    HF-SCF       INT      FILE
 CPU TIMES  *         2.88      2.50      0.12      0.19      0.00
 REAL TIME  *         3.36 SEC
 DISK USED  *        50.75 MB
 **********************************************************************************************************************************


 PROGRAM * HESSIAN

 Computing numerical hessian using default procedure for command HF-SCF

 Symmetry elements for unique displacements: X  Y  

 Using no symmetry in wavefunction calculations

 Running default procedure: HF-SCF000


 Numerically approximating hessian using central gradient differences

 Task list generated. Total number of displacements:      9

    5 tasks completed, CPU=2s Elapsed=2s

 Numerical HF-SCF000 hessian completed. CPU-time:     5.06 sec, Elapsed:     5.06 sec

 HF-SCF hessian saved to record  5300.2

 PROGRAM * FREQUENCIES (Calculation of harmonic vibrational spectra for HF-SCF)


 Permanent Dipole Moment [debye]
   1-  3    0.000000    0.000000   -0.722678

 Dipole Moment Norm    0.7226781 [debye]

 Dipole Moment Derivatives [debye/ang]
                   1             2             3             4             5             6             7             8
         1     1.6957640     0.0000000     0.0000000    -0.8479161     0.0000000     0.0000000    -0.8479161     0.0000000
         2     0.0000000    13.7502404     0.0000000     0.0000000    -6.8754079    -2.3898384     0.0000000    -6.8754079
         3     0.0000000     0.0000000     2.4017885     0.0000000     0.2562293    -1.2008901     0.0000000    -0.2562293
                   9
         1     0.0000000
         2     2.3898384
         3    -1.2008901

 Projecting out rotations and translations

 Force Constants (Second Derivatives of the Energy) in [a.u.]
                             NX1         NY1         NZ1         O1X2        O1Y2    
           NX1           0.0000000
           NY1          -0.0000000   1.3512723
           NZ1           0.0000000   0.0000000   0.5758725
           O1X2         -0.0000000  -0.0000000  -0.0000000   0.0000000
           O1Y2          0.0000000  -0.6756362  -0.3270350   0.0000000   0.8997849
           O1Z2         -0.0000000  -0.2678923  -0.2879362   0.0000000   0.2974637
           O2X3         -0.0000000   0.0000000  -0.0000000   0.0000000  -0.0000000
           O2Y3         -0.0000000  -0.6756362   0.3270350   0.0000000  -0.2241487
           O2Z3         -0.0000000   0.2678923  -0.2879362  -0.0000000   0.0295714
                             O1Z2        O2X3        O2Y3        O2Z3    
           O1Z2          0.1970783
           O2X3          0.0000000   0.0000000
           O2Y3         -0.0295714   0.0000000   0.8997849
           O2Z3          0.0908580   0.0000000  -0.2974637   0.1970783


 Atomic Masses
   1-  3   14.006700   15.999400   15.999400

 Mass weighted Second Derivative Matrix
                             NX1         NY1         NZ1         O1X2        O1Y2    
           NX1           0.0000000
           NY1          -0.0000000   0.0964733
           NZ1           0.0000000   0.0000000   0.0411141
           O1X2         -0.0000000  -0.0000000  -0.0000000   0.0000000
           O1Y2          0.0000000  -0.0451329  -0.0218461   0.0000000   0.0562387
           O1Z2         -0.0000000  -0.0178954  -0.0192343   0.0000000   0.0185922
           O2X3         -0.0000000   0.0000000  -0.0000000   0.0000000  -0.0000000
           O2Y3         -0.0000000  -0.0451329   0.0218461   0.0000000  -0.0140098
           O2Z3         -0.0000000   0.0178954  -0.0192343  -0.0000000   0.0018483
                             O1Z2        O2X3        O2Y3        O2Z3    
           O1Z2          0.0123179
           O2X3          0.0000000   0.0000000
           O2Y3         -0.0018483   0.0000000   0.0562387
           O2Z3          0.0056788   0.0000000  -0.0185922   0.0123179


 Mass Weighted 2nd Derivative Matrix Eigenvalues
   1-  9    0.000000    0.000000    0.000000    0.000000    0.000000    0.000000    0.027219    0.102141    0.145341

 Mass Weighted 2nd Derivative Matrix Eigenvectors
                   1             2             3             4             5             6             7             8
         1     0.0000000     0.0000000     1.0000000     0.0000000     0.0000000     0.0000000     0.0000000     0.0000000
         2     0.3000642    -0.3035108     0.0000000    -0.0000004     0.3220163    -0.2244479     0.0000000     0.0000000
         3     0.0713294    -0.2033633     0.0000000    -0.0000002     0.0902663     0.4998645     0.6320366     0.5441256
         4     0.2396360     0.7488680     0.0000000     0.0000007     0.5960325     0.1628391     0.0000000     0.0000000
         5     0.4885583    -0.2356376     0.0000000    -0.0000001     0.1523904    -0.1931010     0.4613412    -0.5358772
         6    -0.3471129    -0.4411682     0.0000000    -0.0000010     0.5801279     0.4162534    -0.2956843    -0.2545571
         7    -0.0000006    -0.0000012     0.0000000     1.0000000     0.0000006    -0.0000002     0.0000000     0.0000000
         8     0.4885583    -0.2356376     0.0000000    -0.0000001     0.1523904    -0.1931010    -0.4613412     0.5358772
         9     0.4995823     0.0064713     0.0000000     0.0000006    -0.3871803     0.6522263    -0.2956843    -0.2545571
                   9
         1     0.0000000
         2     0.8147216
         3     0.0000000
         4     0.0000000
         5    -0.3811495
         6    -0.1511272
         7     0.0000000
         8    -0.3811495
         9     0.1511272

   Low Vibration      Wavenumber
        Nr             [1/cm] 
        1                0.00
        2                0.00
        3                0.00
        4                0.00
        5                0.00
        6                0.00

     Vibration        Wavenumber
        Nr             [1/cm] 
        1              848.07
        2             1642.86
        3             1959.73

 FREQUENCIES * CALCULATION OF NORMAL MODES FOR HF-SCF


 Atomic Coordinates

  Nr  Atom  Charge       X              Y              Z

   1   N     7.00    0.000000000   -0.000000000   -0.560164316
   2   O1    8.00    0.000000000    2.031159929    0.245198367
   3   O2    8.00    0.000000000   -2.031159929    0.245198367

 Gradient norm at reference geometry: 0.51459D-04

 Normal Modes

                              1 A1        2 A1        3 B2 
 Wavenumbers [cm-1]          848.07     1642.86     1959.73
 Intensities [km/mol]         17.43        7.94      849.81
 Intensities [relative]        2.05        0.93      100.00
           NX1              0.00000     0.00000    -0.00000
           NY1             -0.00000    -0.00000     0.21769
           NZ1              0.16888     0.14539     0.00000
           O1X2            -0.00000     0.00000     0.00000
           O1Y2             0.11534    -0.13397    -0.09529
           O1Z2            -0.07392    -0.06364    -0.03778
           O2X3             0.00000     0.00000     0.00000
           O2Y3            -0.11534     0.13397    -0.09529
           O2Z3            -0.07392    -0.06364     0.03778


 Normal Modes of low/zero frequencies

                                  1           2           3           4           5
 Wavenumbers [cm-1]            0.00        0.00        0.00        0.00        0.00
 Intensities [km/mol]          0.00        0.00        0.00        0.00        0.00
 Intensities [relative]        0.00        0.00        0.00        0.00        0.00
           NX1              0.00000     0.00000     0.26720    -0.00000    -0.00000
           NY1              0.08018    -0.08110     0.00000    -0.00000     0.08604
           NZ1              0.01906    -0.05434     0.00000    -0.00000     0.02412
           O1X2             0.05991     0.18722    -0.00000     0.00000     0.14901
           O1Y2             0.12214    -0.05891     0.00000    -0.00000     0.03810
           O1Z2            -0.08678    -0.11029     0.00000    -0.00000     0.14503
           O2X3            -0.00000    -0.00000     0.00000     0.25000     0.00000
           O2Y3             0.12214    -0.05891     0.00000    -0.00000     0.03810
           O2Z3             0.12490     0.00162    -0.00000     0.00000    -0.09680

                                  6
 Wavenumbers [cm-1]            0.00
 Intensities [km/mol]          0.00
 Intensities [relative]        0.00
           NX1             -0.00000
           NY1             -0.05997
           NZ1              0.13356
           O1X2             0.04071
           O1Y2            -0.04828
           O1Z2             0.10407
           O2X3            -0.00000
           O2Y3            -0.04828
           O2Z3             0.16306


 Frequencies dumped to record   5400.2

 Zero point energy:  0.01013935 [H]     2225.33 [1/CM]       26.62 [KJ/MOL]
 Frequency information read from record  5400.2
 Frequency information read from record  5400.2
 Molecular orbitals read from record     2100.2  Type=RHF/CANONICAL (state 1.1)
 Occupation numbers read from record     2100.2  Type=RHF/RHF (state 1.1)
 Orbital energies read from record       2100.2  Type=RHF/CANONICAL (state 1.1)
 Redundancy group numbers read from rec  2100.2  Type=RHF/RHF (state 1.1)

 HF/cc-pVDZ energy=   -204.045345797873

    OPTG(HF-SCF)          HF-SCF
   -204.04534580   -204.03317976
 **********************************************************************************************************************************
 Molpro calculation terminated
