
 Primary working directories    : /tmp/satyam/molpro.GfznIDxXeo
 Secondary working directories  : /tmp/satyam/molpro.GfznIDxXeo
 Wavefunction directory         : /home/satyam/wfu/
 Main file repository           : /tmp/satyam/molpro.GfznIDxXeo/

 id        : iacsdirector

 Nodes     nprocs
 satyam       2

 Using customized tuning parameters: mindgm=1; mindgv=20; mindgc=4; mindgr=1; noblas=0; minvec=7
 default implementation of scratch files=sf  


 Variables initialized (930), CPU time= 0.00 sec
 
 memory,50,m
 
 set,charge=0
 basis=cc-pVDZ
 
 symmetry,nosym
 
 geometry=geom.xyz
 Including file /home/satyam/Downloads/adt-new/ADT-Program/test_runs/optimization/MOLPRO/NO3/geom.xyz
 rhf
 {uccsd}
 optg;
 {frequencies;print,hessian}
 
 Commands  initialized (760), CPU time= 0.01 sec, 617 directives.
 Default parameters read. Elapsed time= 0.03 sec

 Checking input...
 Passed
1


                                         ***  PROGRAM SYSTEM MOLPRO  ***
                                       Copyright, TTI GmbH Stuttgart, 2015
                                    Version 2018.2 linked Nov 10 2018 21:55:55


 **********************************************************************************************************************************
 LABEL *                                                                                 
  64 bit mpp version                                                                     DATE: 23-Feb-20          TIME: 15:52:08  
 **********************************************************************************************************************************

 SHA1:             5ea806b172b3d20b18658228ad0b1c212d33fc17
 **********************************************************************************************************************************
 SETTING CHARGE         =     0.00000000D+00                                  

 Variable memory set to   50000000 words,  buffer space 

 SETTING BASIS          =    CC-PVDZ
 ZSYMEL=NOSYM


Geometry recognized as XYZ



 Recomputing integrals since basis changed


 Using spherical harmonics

 Library entry N      S cc-pVDZ              selected for orbital group  1
 Library entry N      P cc-pVDZ              selected for orbital group  1
 Library entry N      D cc-pVDZ              selected for orbital group  1
 Library entry O      S cc-pVDZ              selected for orbital group  2
 Library entry O      P cc-pVDZ              selected for orbital group  2
 Library entry O      D cc-pVDZ              selected for orbital group  2


 PROGRAM * SEWARD (Integral evaluation for generally contracted gaussian basis sets)     Author: Roland Lindh, 1990

 Geometry written to block  1 of record 700


 Point group  C1  



 ATOMIC COORDINATES

 NR  ATOM    CHARGE       X              Y              Z

   1  N       7.00    0.000000000    0.000000000    0.000000000
   2  O       8.00    2.337214991    0.000000000    0.000000000
   3  O       8.00   -1.168606994   -2.024085992    0.000000000
   4  O       8.00   -1.168606994    2.024085992    0.000000000

 Bond lengths in Bohr (Angstrom)

 1-2  2.337214991  1-3  2.337213386  1-4  2.337213386
     ( 1.236800910)     ( 1.236800061)     ( 1.236800061)

 Bond angles

  2-1-3  120.00000854   2-1-4  120.00000854   3-1-4  119.99998293

 NUCLEAR CHARGE:                   31
 NUMBER OF PRIMITIVE AOS:         108
 NUMBER OF SYMMETRY AOS:          104
 NUMBER OF CONTRACTIONS:           56   (   56A   )
 NUMBER OF CORE ORBITALS:           4   (    4A   )
 NUMBER OF VALENCE ORBITALS:       16   (   16A   )


 NUCLEAR REPULSION ENERGY  119.30925501

 EXTRA SYMMETRY OF AOS IN SYMMETRY 1:   1 1 1 1 1 2 1 1 2 1   1 2 1 2 1 1 1 1 1 2   1 1 2 1 1 2 1 2 1 1   1 1 1 2 1 1 2 1 1 2
                                        1 2 1 1 1 1 1 2 1 1   2 1 1 2 1 2

 Eigenvalues of metric

         1 0.640E-02 0.755E-02 0.755E-02 0.419E-01 0.681E-01 0.681E-01 0.918E-01 0.118E+00


 Contracted 2-electron integrals neglected if value below      1.0D-11
 AO integral compression algorithm  1   Integral accuracy      1.0D-11

     3.932 MB (compressed) written to integral file ( 31.8%)

     Node minimum: 1.835 MB, node maximum: 2.097 MB


 NUMBER OF SORTED TWO-ELECTRON INTEGRALS:     637602.     BUFFER LENGTH:  32768
 NUMBER OF SEGMENTS:   1  SEGMENT LENGTH:     637602      RECORD LENGTH: 524288

 Memory used in sort:       1.19 MW

 SORT1 READ     1605098. AND WROTE      308410. INTEGRALS IN      1 RECORDS. CPU TIME:     0.01 SEC, REAL TIME:     0.01 SEC
 SORT2 READ      616446. AND WROTE     1274406. INTEGRALS IN     16 RECORDS. CPU TIME:     0.02 SEC, REAL TIME:     0.02 SEC

 Node minimum:      636804.  Node maximum:      637602. integrals

 OPERATOR DM      FOR CENTER  0  COORDINATES:    0.000000    0.000000    0.000000


 **********************************************************************************************************************************
 DATASETS  * FILE   NREC   LENGTH (MB)   RECORD NAMES
              1      18       30.12       500      610      700      900      950      970     1000      129      960     1100   
                                          VAR    BASINP    GEOM    SYMINP    ZMAT    AOBASIS   BASIS     P2S    ABASIS      S 
                                         1400     1410     1200     1210     1080     1600     1650     1700   
                                           T        V       H0       H01     AOSYM     SMH    MOLCAS    OPER   

 PROGRAMS   *        TOTAL       INT
 CPU TIMES  *         0.27      0.19
 REAL TIME  *         0.36 SEC
 DISK USED  *        30.45 MB (local),       72.32 MB (total)
 GA USED    *         0.00 MB       (max)       0.00 MB       (current)
 **********************************************************************************************************************************


 PROGRAM * RHF-SCF (OPEN SHELL)       Authors: W. Meyer, H.-J. Werner


 NUMBER OF ELECTRONS:      16+   15-    SPACE SYMMETRY=1    SPIN SYMMETRY: Doublet 
 CONVERGENCE THRESHOLDS:    1.00E-06 (Density)    1.00E-07 (Energy)
 MAX. NUMBER OF ITERATIONS:       60
 INTERPOLATION TYPE:            DIIS
 INTERPOLATION STEPS:              2 (START)      1 (STEP)
 LEVEL SHIFTS:                 -0.60 (CLOSED) -0.30 (OPEN) 



 Orbital guess generated from atomic densities. Full valence occupancy:   20

 Molecular orbital dump at record        2100.2

 Initial alpha occupancy:  16
 Initial beta  occupancy:  15
 Wave function symmetry:    1

 ITERATION    DDIFF          GRAD             ENERGY        2-EL.EN.            DIPOLE MOMENTS         DIIS   ORB.
    1      0.000D+00      0.000D+00      -278.56291202    435.750915   -0.00000   -0.00000    0.00000    0    start
    2      0.000D+00      0.207D-01      -278.75460121    441.293584   -0.00000   -0.00000    0.00000    1    diag,B
    3      0.352D-01      0.579D-02      -278.76823038    441.082090   -0.00000    0.00000    0.00000    2    diag,B
    4      0.826D-02      0.872D-03      -278.76899685    441.123671   -0.00000   -0.00000    0.00000    3    diag,B
    5      0.158D-02      0.408D-03      -278.76926711    441.140852   -0.00000    0.00000    0.00000    4    diag,B
    6      0.111D-02      0.140D-03      -278.76930609    441.143089    0.00000    0.00000    0.00000    5    diag,B
    7      0.482D-03      0.408D-04      -278.76930919    441.143778    0.00000   -0.00000    0.00000    6    fixocc
    8      0.139D-03      0.125D-04      -278.76930948    441.143512    0.00000    0.00000    0.00000    7    diag,B
    9      0.397D-04      0.355D-05      -278.76930950    441.143380    0.00000   -0.00000    0.00000    8    diag,B
   10      0.133D-04      0.542D-06      -278.76930950    441.143342    0.00000   -0.00000    0.00000    9    orth
   11      0.169D-05      0.104D-06      -278.76930950    441.143344    0.00000    0.00000    0.00000    9    diag,B
   12      0.231D-06      0.287D-07      -278.76930950    441.143344    0.00001   -0.00000    0.00000    0    orth

 Final alpha occupancy:  16
 Final beta  occupancy:  15

 !RHF STATE  1.1 Energy              -278.769309501835
 Nuclear energy                       119.30925501
 One-electron energy                 -618.65023628
 Two-electron energy                  220.57167177
 Virial quotient                       -1.00133225
 !RHF STATE  1.1 Dipole moment          0.00000731    -0.00000000     0.00000000
 Dipole moment /Debye                   0.00001857    -0.00000000     0.00000000

 Orbital energies:

         1.1          2.1          3.1          4.1          5.1          6.1          7.1          8.1          9.1         10.1
    -20.708056   -20.708055   -20.707995   -15.975294    -1.740923    -1.477542    -1.477542    -0.945605    -0.835220    -0.821418

        11.1         12.1         13.1         14.1         15.1         16.1         17.1         18.1
     -0.821418    -0.561501    -0.561500    -0.561401    -0.561401    -0.577148     0.057131     0.358097


 HOMO     16.1    -0.577148 =     -15.7050eV
 LUMO     17.1     0.057131 =       1.5546eV
 LUMO-HOMO         0.634279 =      17.2596eV


 **********************************************************************************************************************************
 DATASETS  * FILE   NREC   LENGTH (MB)   RECORD NAMES
              1      18       30.12       500      610      700      900      950      970     1000      129      960     1100   
                                          VAR    BASINP    GEOM    SYMINP    ZMAT    AOBASIS   BASIS     P2S    ABASIS      S 
                                         1400     1410     1200     1210     1080     1600     1650     1700   
                                           T        V       H0       H01     AOSYM     SMH    MOLCAS    OPER   

              2       4        2.89       700     1000      520     2100   
                                         GEOM     BASIS   MCVARS     RHF  

 PROGRAMS   *        TOTAL   RHF-SCF       INT
 CPU TIMES  *         0.41      0.14      0.19
 REAL TIME  *         0.54 SEC
 DISK USED  *        33.52 MB (local),       78.46 MB (total)
 SF USED    *         0.01 MB
 GA USED    *         0.00 MB       (max)       0.00 MB       (current)
 **********************************************************************************************************************************


 PROGRAM * CCSD (Unrestricted open-shell coupled cluster)     Authors: C. Hampel, H.-J. Werner, 1991, M. Deegan, P.J. Knowles, 1992


 Convergence thresholds:  THRVAR = 1.00D-12  THRDEN = 1.00D-08

 Using ITF CCSD gradient implementation

 Number of core orbitals:           4 (   4 )
 Number of closed-shell orbitals:  11 (  11 )
 Number of active  orbitals:        1 (   1 )
 Number of external orbitals:      40 (  40 )

 Number of N-1 electron functions:              23
 Number of N-2 electron functions:             253
 Number of singly external CSFs:               943
 Number of doubly external CSFs:            321112
 Total number of CSFs:                      322055

 Molecular orbitals read from record     2100.2  Type=RHF/CANONICAL (state 1.1)

 Integral transformation finished. Total CPU:   0.06 sec, npass=  1  Memory used:   1.68 MW

 Starting RMP2 calculation, locsing= 0

 ITER.      SQ.NORM     CORR.ENERGY   TOTAL ENERGY   ENERGY CHANGE        DEN1      VAR(S)    VAR(P)  DIIS     TIME
   1      1.26934636    -0.80194701  -279.57125651    -0.80194701    -0.00366306  0.29D-04  0.18D-02  1  1     0.08
   2      1.27420673    -0.80595770  -279.57526721    -0.00401070    -0.00001827  0.34D-07  0.12D-04  2  2     0.11
   3      1.27454668    -0.80609891  -279.57540841    -0.00014120    -0.00000004  0.32D-09  0.23D-07  3  3     0.13
   4      1.27455018    -0.80609866  -279.57540817     0.00000024    -0.00000000  0.97D-12  0.45D-10  4  4     0.16
   5      1.27455017    -0.80609864  -279.57540814     0.00000002    -0.00000000  0.13D-14  0.76D-13  5  5     0.19
   6      1.27455016    -0.80609864  -279.57540814     0.00000000    -0.00000000  0.13D-17  0.13D-15  6  6     0.21

 Norm of t1 vector:      0.06828787      S-energy:    -0.00733944      T1 diagnostic:  0.00040755
 Norm of t2 vector:      0.51950643      P-energy:    -0.79875920
                                         Alpha-Beta:  -0.56160636
                                         Alpha-Alpha: -0.10332862
                                         Beta-Beta:   -0.13382422

 Residuals written to record  5750.7  len=  426277

 Spin contamination <S**2-Sz**2-Sz>     0.00152995
  Reference energy                   -278.769309501835
  RHF-RMP2 correlation energy          -0.806098640741
 !RHF-RMP2 energy                    -279.575408142576

 Starting UCCSD calculation

 ITER.      SQ.NORM     CORR.ENERGY   TOTAL ENERGY   ENERGY CHANGE        DEN1      VAR(S)    VAR(P)  DIIS     TIME
   1      1.21178901    -0.72847504  -279.49778454    -0.72847504    -0.03425456  0.10D-01  0.69D-02  1  1     0.67
   2      1.23532342    -0.75657070  -279.52588020    -0.02809566    -0.00319312  0.35D-03  0.10D-02  2  2     1.11
   3      1.24430232    -0.75945155  -279.52876105    -0.00288085    -0.00031391  0.16D-03  0.43D-04  3  3     1.51
   4      1.24880571    -0.76101274  -279.53032224    -0.00156119    -0.00004006  0.13D-04  0.87D-05  4  4     1.96
   5      1.25028020    -0.76130874  -279.53061825    -0.00029601    -0.00000326  0.11D-05  0.69D-06  5  5     2.39
   6      1.25058641    -0.76133463  -279.53064414    -0.00002589    -0.00000030  0.76D-07  0.73D-07  6  6     2.83
   7      1.25066038    -0.76135229  -279.53066179    -0.00001765    -0.00000003  0.29D-08  0.12D-07  6  2     3.27
   8      1.25066594    -0.76135055  -279.53066006     0.00000173    -0.00000000  0.62D-09  0.15D-08  6  1     3.70
   9      1.25067058    -0.76135179  -279.53066129    -0.00000123    -0.00000000  0.70D-10  0.25D-09  6  3     4.10
  10      1.25066953    -0.76135131  -279.53066082     0.00000047    -0.00000000  0.94D-11  0.41D-10  6  5     4.53
  11      1.25066978    -0.76135120  -279.53066070     0.00000012    -0.00000000  0.12D-11  0.35D-11  6  4     4.96
  12      1.25066977    -0.76135126  -279.53066076    -0.00000006    -0.00000000  0.24D-12  0.33D-12  6  6     5.39
  13      1.25066972    -0.76135122  -279.53066072     0.00000004    -0.00000000  0.29D-13  0.41D-13  6  1     5.83
  14      1.25066973    -0.76135125  -279.53066075    -0.00000003    -0.00000000  0.53D-14  0.28D-14  6  2     6.23
  15      1.25066971    -0.76135124  -279.53066074     0.00000001    -0.00000000  0.23D-14  0.67D-15  6  1     6.64

 Norm of t1 vector:      0.15054664      S-energy:    -0.00604169      T1 diagnostic:  0.02061384
                                                                       D1 diagnostic:  0.08895435
 Norm of t2 vector:      0.47749914      P-energy:    -0.75530955
                                         Alpha-Beta:  -0.56256006
                                         Alpha-Alpha: -0.08524446
                                         Beta-Beta:   -0.10750504

 Singles amplitudes (print threshold =  0.500E-01):

         I         SYM. A    A   T(IA) [Alpha-Alpha]

         5         1         2      0.08227618

         I         SYM. A    A   T(IA) [Beta-Beta]

         5         1         2      0.09391035

 Doubles amplitudes (print threshold =  0.500E-01):

         I         J         SYM. A    SYM. B    A         B      T(IJ, AB) [Beta-Beta]

        10         9         1         1         1         2      0.06919433
        10         9         1         1         2         1     -0.06919433
        11         8         1         1         1         2      0.06919469
        11         8         1         1         2         1     -0.06919469

         I         J         SYM. A    SYM. B    A         B      T(IJ, AB) [Alpha-Beta]

         5         5         1         1         2         2     -0.05703508
         8         8         1         1         2         2     -0.05900008
         9         9         1         1         2         2     -0.05900065
         9        10         1         1         2         1      0.08531439
         8        11         1         1         2         1      0.08531475

 Spin contamination <S**2-Sz**2-Sz>     0.00300725


 RESULTS
 =======

  Reference energy                   -278.769309501835
  UCCSD singles energy                 -0.006041685202
  UCCSD pair energy                    -0.755309552676
  UCCSD correlation energy             -0.761351237878

 !RHF-UCCSD energy                   -279.530660739714

 Program statistics:

 Available memory in ccsd:                49998712
 Min. memory needed in ccsd:                998560
 Max. memory used in ccsd:                 1387205
 Max. memory used in cckext:               1775888 (15 integral passes)
 Max. memory used in cckint:               1684328 ( 1 integral passes)



 **********************************************************************************************************************************
 DATASETS  * FILE   NREC   LENGTH (MB)   RECORD NAMES
              1      18       30.12       500      610      700      900      950      970     1000      129      960     1100   
                                          VAR    BASINP    GEOM    SYMINP    ZMAT    AOBASIS   BASIS     P2S    ABASIS      S 
                                         1400     1410     1200     1210     1080     1600     1650     1700   
                                           T        V       H0       H01     AOSYM     SMH    MOLCAS    OPER   

              2       4        2.89       700     1000      520     2100   
                                         GEOM     BASIS   MCVARS     RHF  

 PROGRAMS   *        TOTAL     UCCSD   RHF-SCF       INT
 CPU TIMES  *         7.08      6.66      0.14      0.19
 REAL TIME  *         7.76 SEC
 DISK USED  *        73.98 MB (local),      159.39 MB (total)
 SF USED    *        53.77 MB
 GA USED    *         0.00 MB       (max)       0.00 MB       (current)
 **********************************************************************************************************************************


 PROGRAM * OPT (Geometry optimization)     Authors: F. Eckert and H.-J. Werner


 BFGS update of hessian

 *** Long output written to logfile /home/satyam/Downloads/adt-new/ADT-Program/test_runs/optimization/MOLPRO/NO3/optg_mol.log ***


 Geometry optimization using default procedure for command UCCSD

 Geometry written to block  1 of record 700

 Generated   3 symmetrical displacements

 Making model hessian for cartesian coordinates

 Entering Rational Function Geometry Optimization

 ITER.   ENERGY(OLD)    ENERGY(NEW)      DE          GRADMAX     GRADNORM    GRADRMS     STEPMAX     STEPLEN     STEPRMS   CPU-time
   1  -279.53066074  -279.53085848    -0.00019774  0.01849280  0.01849291  0.00308215  0.01656138  0.01656147  0.00828074     54.18
   2  -279.53085848  -279.53087536    -0.00001688  0.00523397  0.00523406  0.00087234  0.00653741  0.00653747  0.00326873    103.88
   3  -279.53087536  -279.53087536     0.00000000  0.00014549  0.00014587  0.00002431  0.00017680  0.00017684  0.00008842    154.38

 END OF GEOMETRY OPTIMIZATION.

 Current geometry (xyz format, in Angstrom)

    4
 UCCSD/CC-PVDZ  ENERGY=-279.53087536
 N         -0.0000068899        0.0000000000        0.0000000000
 O          1.2298249018        0.0000000000        0.0000000000
 O         -0.6149087409       -1.0650137715        0.0000000000
 O         -0.6149087409        1.0650137715        0.0000000000

 **********************************************************************************************************************************

 Geometry written to block  1 of record 700


 **********************************************************************************************************************************
 DATASETS  * FILE   NREC   LENGTH (MB)   RECORD NAMES
              1      18       30.12       500      610      700      900      950      970     1000      129      960     1100   
                                          VAR    BASINP    GEOM    SYMINP    ZMAT    AOBASIS   BASIS     P2S    ABASIS      S 
                                         1400     1410     1200     1210     1080     1600     1650     1700   
                                           T        V       H0       H01     AOSYM     SMH    MOLCAS    OPER   

              2       5        2.93       700     1000      520     2100     5600   
                                         GEOM     BASIS   MCVARS     RHF     GINFO   

 PROGRAMS   *        TOTAL      OPTG     UCCSD   RHF-SCF       INT
 CPU TIMES  *       161.46    154.38      6.66      0.14      0.19
 REAL TIME  *       198.25 SEC
 DISK USED  *        76.64 MB (local),      164.71 MB (total)
 SF USED    *        53.77 MB
 GA USED    *         0.00 MB       (max)       0.00 MB       (current)
 **********************************************************************************************************************************


 PROGRAM * HESSIAN

 Computing numerical hessian using default procedure for command UCCSD

 Symmetry elements for unique displacements: Y  Z  

 Using no symmetry in wavefunction calculations

 Running default procedure: RHF-SCF000  UCCSD


 Numerically approximating hessian using central energy differences

 Task list generated. Total number of displacements:     44

    5 tasks completed, CPU=42s Elapsed=42s
   10 tasks completed, CPU=1m 22s Elapsed=1m 23s
   15 tasks completed, CPU=2m 3s Elapsed=2m 5s
   20 tasks completed, CPU=2m 46s Elapsed=2m 49s
   25 tasks completed, CPU=3m 29s Elapsed=3m 33s
   30 tasks completed, CPU=4m 11s Elapsed=4m 16s
   35 tasks completed, CPU=4m 54s Elapsed=4m 59s
   40 tasks completed, CPU=5m 36s Elapsed=5m 42s

 Numerical UCCSD hessian completed. CPU-time:   370.65 sec, Elapsed:   377.69 sec

 UCCSD hessian saved to record  5300.2

 PROGRAM * FREQUENCIES (Calculation of harmonic vibrational spectra for UCCSD)


 Permanent Dipole Moment [debye]
   1-  3    0.000000    0.000000    0.000000

 Dipole Moment Norm    0.0000000 [debye]

 Dipole Moment Derivatives [debye/ang]
                   1             2             3             4             5             6             7             8
         1     0.0000000     0.0000000     0.0000000     0.0000000     0.0000000     0.0000000     0.0000000     0.0000000
         2     0.0000000     0.0000000     0.0000000     0.0000000     0.0000000     0.0000000     0.0000000     0.0000000
         3     0.0000000     0.0000000     0.0000000     0.0000000     0.0000000     0.0000000     0.0000000     0.0000000
                   9            10            11            12
         1     0.0000000     0.0000000     0.0000000     0.0000000
         2     0.0000000     0.0000000     0.0000000     0.0000000
         3     0.0000000     0.0000000     0.0000000     0.0000000

 Projecting out rotations and translations

 Force Constants (Second Derivatives of the Energy) in [a.u.]
                             NX1         NY1         NZ1         OX2         OY2     
           NX1           0.4334839
           NY1           0.0000000   0.4340321
           NZ1           0.0000000   0.0000000   0.2770960
           OX2          -0.3483381  -0.0000000   0.0000000   0.6006400
           OY2          -0.0000000   0.0593244   0.0000000   0.0000000   0.0525152
           OZ2           0.0000000   0.0000000  -0.0923639   0.0000000   0.0000000
           OX3          -0.0425729  -0.1766760   0.0000000  -0.1261509  -0.0626073
           OY3          -0.1765263  -0.2466782   0.0000000  -0.0587775  -0.0559198
           OZ3           0.0000000   0.0000000  -0.0923660   0.0000000   0.0000000
           OX4          -0.0425729   0.1766760   0.0000000  -0.1261509   0.0626073
           OY4           0.1765263  -0.2466782   0.0000000   0.0587775  -0.0559198
           OZ4           0.0000000   0.0000000  -0.0923660   0.0000000   0.0000000
                             OZ2         OX3         OY3         OZ3         OX4     
           OZ2           0.0307875
           OX3           0.0000000   0.1895869
           OY3           0.0000000   0.2372935   0.4638193
           OZ3           0.0307882   0.0000000   0.0000000   0.0307889
           OX4           0.0000000  -0.0208631  -0.0019898   0.0000000   0.1895869
           OY4           0.0000000   0.0019898  -0.1612213   0.0000000  -0.2372935
           OZ4           0.0307882   0.0000000   0.0000000   0.0307889   0.0000000
                             OY4         OZ4     
           OY4           0.4638193
           OZ4           0.0000000   0.0307889


 Atomic Masses
   1-  4   14.006700   15.999400   15.999400   15.999400

 Mass weighted Second Derivative Matrix
                             NX1         NY1         NZ1         OX2         OY2     
           NX1           0.0309483
           NY1           0.0000000   0.0309875
           NZ1           0.0000000   0.0000000   0.0197831
           OX2          -0.0232692  -0.0000000   0.0000000   0.0375414
           OY2          -0.0000000   0.0039629   0.0000000   0.0000000   0.0032823
           OZ2           0.0000000   0.0000000  -0.0061700   0.0000000   0.0000000
           OX3          -0.0028439  -0.0118021   0.0000000  -0.0078847  -0.0039131
           OY3          -0.0117921  -0.0164782   0.0000000  -0.0036737  -0.0034951
           OZ3           0.0000000   0.0000000  -0.0061701   0.0000000   0.0000000
           OX4          -0.0028439   0.0118021   0.0000000  -0.0078847   0.0039131
           OY4           0.0117921  -0.0164782   0.0000000   0.0036737  -0.0034951
           OZ4           0.0000000   0.0000000  -0.0061701   0.0000000   0.0000000
                             OZ2         OX3         OY3         OZ3         OX4     
           OZ2           0.0019243
           OX3           0.0000000   0.0118496
           OY3           0.0000000   0.0148314   0.0289898
           OZ3           0.0019243   0.0000000   0.0000000   0.0019244
           OX4           0.0000000  -0.0013040  -0.0001244   0.0000000   0.0118496
           OY4           0.0000000   0.0001244  -0.0100767   0.0000000  -0.0148314
           OZ4           0.0019243   0.0000000   0.0000000   0.0019244   0.0000000
                             OY4         OZ4     
           OY4           0.0289898
           OZ4           0.0000000   0.0019244


 Mass Weighted 2nd Derivative Matrix Eigenvalues
   1- 10    0.000000    0.000000    0.000000    0.000000    0.000000    0.000000    0.005477    0.005493    0.025556    0.051794
  11- 12    0.060815    0.060860

 Mass Weighted 2nd Derivative Matrix Eigenvectors
                   1             2             3             4             5             6             7             8
         1     0.3559355     0.1850563     0.0644824     0.2414096    -0.0159413    -0.0476451     0.0000000     0.5399456
         2     0.2191973    -0.0745276    -0.0466265    -0.1858118    -0.0595198     0.3633898    -0.5395742     0.0000000
         3    -0.0196616     0.1674557     0.1690411    -0.1031948     0.3898794     0.0789851     0.0000000     0.0000000
         4     0.3804129     0.1977825     0.0689168     0.2580112    -0.0170376    -0.0509216     0.0000000     0.2875003
         5    -0.0372584     0.1159683     0.0333315     0.0884259    -0.1904104     0.7289441     0.6243082     0.0000000
         6     0.0093646    -0.2748787    -0.1085986     0.3248735     0.8251984     0.2253191     0.0000000     0.0000000
         7     0.1452726     0.3671871     0.1409358     0.5065621    -0.1268421     0.2440013    -0.3949459    -0.3963517
         8     0.3700331    -0.1774612    -0.0914143    -0.3420946    -0.0002156     0.2181016    -0.0597263     0.3947233
         9    -0.0694149     0.7773219    -0.2659832    -0.4015787     0.2890597     0.0091702     0.0000000     0.0000000
        10     0.6155531     0.0283778    -0.0031023     0.0094602     0.0927669    -0.3458446     0.3949459    -0.3963517
        11     0.3700331    -0.1774612    -0.0914143    -0.3420946    -0.0002156     0.2181016    -0.0597263    -0.3947233
        12    -0.0029900     0.0344607     0.9165731    -0.2541591     0.1358247     0.0187644     0.0000000     0.0000000
                   9            10            11            12
         1     0.0000000    -0.0002728     0.6946669     0.0000000
         2     0.0000000     0.0000000     0.0000000     0.6949554
         3     0.8798314     0.0000000     0.0000000     0.0000000
         4     0.0000000     0.5775022    -0.5707892     0.0000000
         5     0.0000000     0.0000000     0.0000000     0.1373197
         6    -0.2744022     0.0000000     0.0000000     0.0000000
         7     0.0000000    -0.2886235    -0.0395899    -0.3066399
         8     0.0000000    -0.4999420    -0.3070040    -0.3937793
         9    -0.2744085     0.0000000     0.0000000     0.0000000
        10     0.0000000    -0.2886235    -0.0395899     0.3066399
        11     0.0000000     0.4999420     0.3070040    -0.3937793
        12    -0.2744085     0.0000000     0.0000000     0.0000000

   Low Vibration      Wavenumber
        Nr             [1/cm] 
        1                0.00
        2                0.00
        3                0.00
        4                0.00
        5                0.00
        6                0.00

     Vibration        Wavenumber
        Nr             [1/cm] 
        1              380.43
        2              380.97
        3              821.77
        4             1169.88
        5             1267.67
        6             1268.13

 FREQUENCIES * CALCULATION OF NORMAL MODES FOR UCCSD


 Atomic Coordinates

  Nr  Atom  Charge       X              Y              Z

   1   N     7.00   -0.000013020    0.000000000    0.000000000
   2   O     8.00    2.324032246    0.000000000    0.000000000
   3   O     8.00   -1.162009112   -2.012584347    0.000000000
   4   O     8.00   -1.162009112    2.012584347    0.000000000

 Gradient norm at reference geometry: 0.57230D-04

 Normal Modes

                              1 B2        2 A1        3 B1        4 A1        5 A1 
 Wavenumbers [cm-1]          380.43      380.97      821.77     1169.88     1267.67
 Intensities [km/mol]          0.00        0.00        0.00        0.00        0.00
 Intensities [relative]        0.00        0.00        0.00        0.00        0.00
           NX1             -0.00000     0.14427     0.00000    -0.00007     0.18561
           NY1             -0.14417    -0.00000     0.00000     0.00000    -0.00000
           NZ1              0.00000     0.00000     0.23509    -0.00000    -0.00000
           OX2             -0.00000     0.07188    -0.00000     0.14438    -0.14270
           OY2              0.15608     0.00000    -0.00000     0.00000    -0.00000
           OZ2              0.00000     0.00000    -0.06860     0.00000     0.00000
           OX3             -0.09874    -0.09909    -0.00000    -0.07216    -0.00990
           OY3             -0.01493     0.09868     0.00000    -0.12499    -0.07675
           OZ3             -0.00000     0.00000    -0.06860    -0.00000     0.00000
           OX4              0.09874    -0.09909    -0.00000    -0.07216    -0.00990
           OY4             -0.01493    -0.09868     0.00000     0.12499     0.07675
           OZ4             -0.00000     0.00000    -0.06860    -0.00000     0.00000

                              6 B2 
 Wavenumbers [cm-1]         1268.13
 Intensities [km/mol]          0.00
 Intensities [relative]        0.00
           NX1              0.00000
           NY1              0.18569
           NZ1             -0.00000
           OX2             -0.00000
           OY2              0.03433
           OZ2             -0.00000
           OX3             -0.07666
           OY3             -0.09845
           OZ3              0.00000
           OX4              0.07666
           OY4             -0.09845
           OZ4              0.00000


 Normal Modes of low/zero frequencies

                                  1           2           3           4           5
 Wavenumbers [cm-1]            0.00        0.00        0.00        0.00        0.00
 Intensities [km/mol]          0.00        0.00        0.00        0.00        0.00
 Intensities [relative]        0.00        0.00        0.00        0.00        0.00
           NX1              0.09510     0.04945     0.01723     0.06450    -0.00426
           NY1              0.05857    -0.01991    -0.01246    -0.04965    -0.01590
           NZ1             -0.00525     0.04474     0.04517    -0.02757     0.10417
           OX2              0.09510     0.04945     0.01723     0.06450    -0.00426
           OY2             -0.00931     0.02899     0.00833     0.02211    -0.04760
           OZ2              0.00234    -0.06872    -0.02715     0.08122     0.20630
           OX3              0.03632     0.09180     0.03523     0.12664    -0.03171
           OY3              0.09251    -0.04437    -0.02285    -0.08553    -0.00005
           OZ3             -0.01735     0.19433    -0.06650    -0.10040     0.07227
           OX4              0.15389     0.00709    -0.00078     0.00237     0.02319
           OY4              0.09251    -0.04437    -0.02285    -0.08553    -0.00005
           OZ4             -0.00075     0.00862     0.22915    -0.06354     0.03396

                                  6
 Wavenumbers [cm-1]            0.00
 Intensities [km/mol]          0.00
 Intensities [relative]        0.00
           NX1             -0.01273
           NY1              0.09710
           NZ1              0.02110
           OX2             -0.01273
           OY2              0.18224
           OZ2              0.05633
           OX3              0.06100
           OY3              0.05453
           OZ3              0.00229
           OX4             -0.08646
           OY4              0.05453
           OZ4              0.00469


 Frequencies dumped to record   5400.2

 Zero point energy:  0.01204888 [H]     2644.42 [1/CM]       31.63 [KJ/MOL]

 Recomputing wavefunction at initial geometry


 **********************************************************************************************************************************
 DATASETS  * FILE   NREC   LENGTH (MB)   RECORD NAMES
              1      18       30.12       500      610      700      900      950      970     1000      129      960     1100   
                                          VAR    BASINP    GEOM    SYMINP    ZMAT    AOBASIS   BASIS     P2S    ABASIS      S 
                                         1400     1410     1200     1210     1080     1600     1650     1700   
                                           T        V       H0       H01     AOSYM     SMH    MOLCAS    OPER   

              2       8        2.94       700     1000      520     2100     5600     5300     5450     5400   
                                         GEOM     BASIS   MCVARS     RHF     GINFO    HESS     NMOD     FREQ   

 PROGRAMS   *        TOTAL      FREQ      OPTG     UCCSD   RHF-SCF       INT
 CPU TIMES  *       506.17    344.71    154.38      6.66      0.14      0.19
 REAL TIME  *       583.68 SEC
 DISK USED  *        77.12 MB (local),      176.06 MB (total)
 SF USED    *        53.77 MB
 GA USED    *         0.00 MB       (max)       0.00 MB       (current)
 **********************************************************************************************************************************

 UCCSD/cc-pVDZ energy=   -279.530875356561

     OPTG(UCCSD)           UCCSD         RHF-SCF
   -279.53087536   -279.53066074   -278.76930950
 **********************************************************************************************************************************
 Molpro calculation terminated
